/*--------------------------------*- C++ -*----------------------------------*\
| =========                 |                                                 |
| \\      /  F ield         | OpenFOAM: The Open Source CFD Toolbox           |
|  \\    /   O peration     | Version:  5.x                                   |
|   \\  /    A nd           | Web:      www.OpenFOAM.org                      |
|    \\/     M anipulation  |                                                 |
\*---------------------------------------------------------------------------*/
FoamFile
{
    version     2.0;
    format      ascii;
    class       volScalarField;
    location    "0.6";
    object      gradTx;
}
// * * * * * * * * * * * * * * * * * * * * * * * * * * * * * * * * * * * * * //

dimensions      [0 -1 0 1 0 0 0];

internalField   nonuniform List<scalar> 
512
(
0.0105429
0.0298411
0.04451
0.0532704
0.0564026
0.0550953
0.0508074
0.0448887
0.0383373
0.0318409
0.0258002
0.0204018
0.01569
0.0116196
0.0080921
0.00497902
0.00213726
-0.000581492
-0.00332441
-0.00623161
-0.00942758
-0.0130061
-0.0170052
-0.0213695
-0.0258994
-0.030191
-0.0335836
-0.0351552
-0.033832
-0.0286871
-0.0194331
-0.00690045
0.0320767
0.0906873
0.135014
0.161231
0.170329
0.166042
0.152846
0.134834
0.11501
0.0954209
0.0772501
0.0610417
0.046916
0.0347283
0.0241767
0.0148722
0.0063829
-0.00173761
-0.00993236
-0.0186238
-0.0281893
-0.0389165
-0.0509287
-0.0640724
-0.0777641
-0.0908052
-0.101214
-0.106197
-0.102459
-0.0870946
-0.0591224
-0.0210193
0.0549987
0.155126
0.230066
0.273509
0.287637
0.279251
0.256135
0.225262
0.19166
0.158682
0.12824
0.101185
0.0776771
0.0574436
0.0399617
0.0245703
0.0105419
-0.00287272
-0.0164167
-0.0308012
-0.0466672
-0.0645153
-0.0845823
-0.106655
-0.129811
-0.1521
-0.170225
-0.179444
-0.174015
-0.148672
-0.101352
-0.0361225
0.0803867
0.225904
0.333025
0.393173
0.410643
0.396194
0.361443
0.316429
0.268212
0.221367
0.178432
0.140483
0.107652
0.0794974
0.0552444
0.0339424
0.0145569
-0.00397138
-0.0226919
-0.0426142
-0.0646609
-0.0895761
-0.117757
-0.148994
-0.182109
-0.214474
-0.241505
-0.256395
-0.250585
-0.215771
-0.148066
-0.0529744
0.109579
0.306343
0.447783
0.523585
0.54173
0.518288
0.469429
0.40848
0.344503
0.283156
0.227448
0.178558
0.136505
0.100613
0.0698181
0.042856
0.0183707
-0.00501626
-0.0286682
-0.0539046
-0.0819533
-0.113844
-0.150199
-0.190904
-0.234642
-0.278236
-0.315879
-0.338579
-0.334458
-0.291129
-0.201633
-0.0725327
0.144348
0.400697
0.579031
0.668511
0.683355
0.646838
0.580583
0.501401
0.420245
0.343637
0.274848
0.214997
0.163877
0.120502
0.0834705
0.0511769
0.0219267
-0.00598765
-0.0342501
-0.0645029
-0.0983057
-0.137026
-0.181595
-0.232109
-0.287275
-0.343558
-0.394066
-0.427545
-0.428199
-0.378075
-0.265112
-0.096076
0.187171
0.514659
0.732604
0.83222
0.837997
0.782956
0.69515
0.594958
0.494981
0.402289
0.320124
0.249345
0.189387
0.138864
0.0959834
0.0587693
0.0251689
-0.00686323
-0.039337
-0.0742273
-0.113454
-0.158784
-0.211555
-0.272215
-0.339706
-0.410411
-0.476605
-0.52481
-0.534715
-0.480787
-0.342632
-0.125399
0.241662
0.656131
0.915907
1.01954
1.00806
0.927431
0.813032
0.688637
0.568057
0.458457
0.362684
0.281097
0.212627
0.155384
0.107133
0.0654961
0.0280426
-0.00761832
-0.0438226
-0.0828838
-0.127106
-0.178726
-0.239604
-0.310689
-0.391425
-0.478496
-0.563751
-0.631762
-0.657285
-0.604627
-0.439961
-0.163123
0.313315
0.836415
1.13843
1.23582
1.19566
1.08055
0.933665
0.781574
0.638574
0.511338
0.401845
0.309692
0.23316
0.169737
0.116689
0.0712198
0.0304947
-0.00822638
-0.0475978
-0.0902689
-0.138942
-0.196405
-0.26517
-0.346839
-0.441667
-0.547157
-0.655335
-0.749463
-0.799517
-0.756557
-0.565394
-0.213224
0.410804
1.07212
1.41233
1.48672
1.40228
1.24185
1.05588
0.872485
0.705365
0.559977
0.436838
0.334523
0.250528
0.181584
0.124417
0.0758047
0.0324748
-0.00865996
-0.0505527
-0.0961747
-0.14862
-0.211316
-0.287588
-0.379799
-0.489364
-0.615282
-0.750577
-0.878333
-0.96514
-0.945649
-0.731162
-0.281928
0.54834
1.38825
1.75295
1.7776
1.62821
1.40982
1.17778
0.959606
0.766967
0.603269
0.46681
0.354926
0.264257
0.190583
0.130078
0.0791197
0.0339371
-0.00889177
-0.052581
-0.100399
-0.15578
-0.222898
-0.306109
-0.408532
-0.533107
-0.681216
-0.847866
-1.01761
-1.1575
-1.18363
-0.955716
-0.379323
0.750096
1.82335
2.17888
2.11234
1.87174
1.58152
1.29655
1.04066
0.821609
0.639991
0.490842
0.370192
0.273872
0.196394
0.13343
0.0810449
0.0348435
-0.00889591
-0.0535842
-0.102758
-0.160052
-0.230527
-0.319922
-0.431849
-0.571113
-0.742685
-0.944565
-1.16455
-1.3785
-1.48528
-1.2675
-0.522317
1.0587
2.43808
2.71065
2.49104
2.12808
1.75229
1.40843
1.11285
0.8672
0.668861
0.507971
0.379558
0.278922
0.198688
0.13422
0.0814815
0.0351691
-0.00864983
-0.0534735
-0.103116
-0.161081
-0.233503
-0.328207
-0.448464
-0.601204
-0.796764
-1.03694
-1.31322
-1.62653
-1.86828
-1.71125
-0.740213
1.55205
3.32981
3.36579
2.90612
2.3881
1.91554
1.50868
1.17296
0.901306
0.68866
0.517226
0.382177
0.279027
0.197161
0.132166
0.080372
0.0349077
-0.00813912
-0.0521667
-0.101425
-0.158551
-0.230989
-0.330215
-0.457102
-0.620764
-0.839896
-1.12053
-1.45289
-1.89274
-2.35119
-2.35865
-1.08553
2.37731
4.6574
4.14521
3.33635
2.63732
2.06287
1.59162
1.21747
0.921029
0.698471
0.517643
0.377029
0.273973
0.19154
0.126901
0.0777413
0.0340782
-0.00737048
-0.049562
-0.0977996
-0.15225
-0.221864
-0.325426
-0.456699
-0.626645
-0.867881
-1.19143
-1.56598
-2.15461
-2.94711
-3.32644
-1.65544
3.82154
6.68363
4.99934
3.73971
2.85599
2.18499
1.65082
1.24301
0.922684
0.698188
0.508283
0.362709
0.263934
0.181596
0.117858
0.0737989
0.0327317
-0.00640375
-0.0454566
-0.0926562
-0.142218
-0.204341
-0.313832
-0.446788
-0.614904
-0.875537
-1.24988
-1.62586
-2.36588
-3.64667
-4.80712
-2.6355
)
;

boundaryField
{
    left
    {
        type            calculated;
        value           uniform 0;
    }
    right
    {
        type            calculated;
        value           uniform 0;
    }
    interface
    {
        type            calculated;
        value           nonuniform List<scalar> 
32
(
3.82154
6.68363
4.99934
3.73971
2.85599
2.18499
1.65082
1.24301
0.922684
0.698188
0.508283
0.362709
0.263934
0.181596
0.117858
0.0737989
0.0327317
-0.00640375
-0.0454566
-0.0926562
-0.142218
-0.204341
-0.313832
-0.446788
-0.614904
-0.875537
-1.24988
-1.62586
-2.36588
-3.64667
-4.80712
-2.6355
)
;
    }
    bottom
    {
        type            calculated;
        value           nonuniform List<scalar> 
32
(
0.0105429
0.0298411
0.04451
0.0532704
0.0564026
0.0550953
0.0508074
0.0448887
0.0383373
0.0318409
0.0258002
0.0204018
0.01569
0.0116196
0.0080921
0.00497902
0.00213726
-0.000581492
-0.00332441
-0.00623161
-0.00942758
-0.0130061
-0.0170052
-0.0213695
-0.0258994
-0.030191
-0.0335836
-0.0351552
-0.033832
-0.0286871
-0.0194331
-0.00690045
)
;
    }
    defaultFaces
    {
        type            empty;
    }
}


// ************************************************************************* //
