/*--------------------------------*- C++ -*----------------------------------*\
| =========                 |                                                 |
| \\      /  F ield         | OpenFOAM: The Open Source CFD Toolbox           |
|  \\    /   O peration     | Version:  5.x                                   |
|   \\  /    A nd           | Web:      www.OpenFOAM.org                      |
|    \\/     M anipulation  |                                                 |
\*---------------------------------------------------------------------------*/
FoamFile
{
    version     2.0;
    format      ascii;
    class       surfaceScalarField;
    location    "0.4";
    object      phi;
}
// * * * * * * * * * * * * * * * * * * * * * * * * * * * * * * * * * * * * * //

dimensions      [1 0 -1 0 0 0 0];

internalField   nonuniform List<scalar> 
23692
(
9.30407e-05
3.88782e-08
9.29326e-05
1.08041e-07
9.27581e-05
1.74509e-07
9.2551e-05
2.07109e-07
9.23475e-05
2.03584e-07
9.21666e-05
1.80862e-07
9.201e-05
1.56666e-07
9.18699e-05
1.40159e-07
9.17375e-05
1.32488e-07
9.16065e-05
1.31029e-07
9.14739e-05
1.32713e-07
9.13386e-05
1.35422e-07
9.12007e-05
1.38091e-07
9.10605e-05
1.40351e-07
9.09185e-05
1.42177e-07
9.07751e-05
1.43663e-07
9.06306e-05
1.44915e-07
9.0485e-05
1.46003e-07
9.03384e-05
1.4698e-07
9.01911e-05
1.47868e-07
9.00431e-05
1.4867e-07
8.98945e-05
1.49378e-07
8.97454e-05
1.49974e-07
8.9596e-05
1.50435e-07
8.94464e-05
1.50736e-07
8.92969e-05
1.50852e-07
8.91476e-05
1.50763e-07
8.89988e-05
1.50448e-07
8.88508e-05
1.499e-07
8.87037e-05
1.49112e-07
8.85579e-05
1.4809e-07
8.84136e-05
1.46844e-07
8.8271e-05
1.45391e-07
8.81303e-05
1.43756e-07
8.79916e-05
1.41972e-07
8.78551e-05
1.40073e-07
8.77209e-05
1.38097e-07
8.75889e-05
1.3609e-07
8.74592e-05
1.34092e-07
8.73318e-05
1.32151e-07
8.72065e-05
1.30311e-07
8.70833e-05
1.28619e-07
8.69618e-05
1.2712e-07
8.68419e-05
1.2586e-07
8.67232e-05
1.24885e-07
8.66055e-05
1.24241e-07
8.64884e-05
1.23975e-07
8.63714e-05
1.24135e-07
8.6254e-05
1.24771e-07
8.61358e-05
1.25942e-07
8.60161e-05
1.27709e-07
8.58941e-05
1.30143e-07
8.57693e-05
1.33327e-07
8.56407e-05
1.37361e-07
8.55073e-05
1.42361e-07
8.5368e-05
1.4847e-07
8.52215e-05
1.55861e-07
8.50664e-05
1.64748e-07
8.49008e-05
1.75394e-07
8.47226e-05
1.88121e-07
8.45294e-05
2.03335e-07
8.43181e-05
2.21541e-07
8.40852e-05
2.43378e-07
8.38261e-05
2.6966e-07
8.35353e-05
3.01436e-07
8.3206e-05
3.40073e-07
8.28294e-05
3.87372e-07
8.23946e-05
4.45747e-07
8.18872e-05
5.18481e-07
8.12881e-05
6.10113e-07
8.05722e-05
7.27033e-07
7.97049e-05
8.78401e-07
7.86385e-05
1.07759e-06
7.73051e-05
1.34451e-06
7.5607e-05
1.70927e-06
7.34e-05
2.21817e-06
7.04683e-05
2.9429e-06
6.64835e-05
3.99588e-06
6.09286e-05
5.566e-06
5.29337e-05
8.00591e-06
1.2251e-05
4.06937e-05
9.95597e-05
7.85403e-08
9.94463e-05
2.21462e-07
9.92618e-05
3.58949e-07
9.9042e-05
4.26943e-07
9.88251e-05
4.20492e-07
9.86318e-05
3.74207e-07
9.84639e-05
3.24577e-07
9.83136e-05
2.90562e-07
9.81715e-05
2.74641e-07
9.80311e-05
2.7148e-07
9.78891e-05
2.74809e-07
9.77444e-05
2.8028e-07
9.7597e-05
2.85699e-07
9.74472e-05
2.90301e-07
9.72956e-05
2.9403e-07
9.71425e-05
2.97069e-07
9.69881e-05
2.99628e-07
9.68327e-05
3.01864e-07
9.66763e-05
3.03873e-07
9.65191e-05
3.05696e-07
9.63611e-05
3.07346e-07
9.62025e-05
3.08804e-07
9.60433e-05
3.10036e-07
9.58839e-05
3.10989e-07
9.57242e-05
3.11618e-07
9.55646e-05
3.11868e-07
9.54053e-05
3.11692e-07
9.52464e-05
3.11061e-07
9.50884e-05
3.09949e-07
9.49314e-05
3.08348e-07
9.47757e-05
3.06264e-07
9.46215e-05
3.03722e-07
9.44691e-05
3.00759e-07
9.43187e-05
2.97426e-07
9.41704e-05
2.93784e-07
9.40243e-05
2.89908e-07
9.38807e-05
2.85881e-07
9.37394e-05
2.81785e-07
9.36005e-05
2.77715e-07
9.3464e-05
2.73761e-07
9.33297e-05
2.70018e-07
9.31974e-05
2.66581e-07
9.3067e-05
2.63545e-07
9.29382e-05
2.61002e-07
9.28108e-05
2.59046e-07
9.26842e-05
2.57774e-07
9.25582e-05
2.5728e-07
9.24323e-05
2.57663e-07
9.2306e-05
2.59031e-07
9.21787e-05
2.61496e-07
9.20497e-05
2.65188e-07
9.19184e-05
2.70252e-07
9.1784e-05
2.76856e-07
9.16455e-05
2.85202e-07
9.15019e-05
2.9553e-07
9.13521e-05
3.08128e-07
9.11946e-05
3.2335e-07
9.1028e-05
3.41626e-07
9.08504e-05
3.63483e-07
9.06596e-05
3.89578e-07
9.0453e-05
4.2072e-07
9.02276e-05
4.57921e-07
8.99797e-05
5.02455e-07
8.97047e-05
5.55937e-07
8.93971e-05
6.20434e-07
8.90501e-05
6.98622e-07
8.86551e-05
7.94003e-07
8.82013e-05
9.11223e-07
8.7675e-05
1.05653e-06
8.70585e-05
1.23843e-06
8.63287e-05
1.46872e-06
8.54551e-05
1.76391e-06
8.43971e-05
2.14751e-06
8.31004e-05
2.65318e-06
8.14921e-05
3.32955e-06
7.94759e-05
4.24633e-06
7.69296e-05
5.50104e-06
7.37148e-05
7.2226e-06
6.97244e-05
9.56826e-06
6.5087e-05
1.26552e-05
1.60748e-05
6.12749e-05
0.000106536
1.18006e-07
0.00010642
3.37935e-07
0.000106229
5.50318e-07
0.000105998
6.57268e-07
0.000105769
6.4991e-07
0.000105563
5.80534e-07
0.000105382
5.04989e-07
0.00010522
4.52676e-07
0.000105067
4.27785e-07
0.000104916
4.22417e-07
0.000104764
4.27089e-07
0.000104609
4.35167e-07
0.000104452
4.4327e-07
0.000104292
4.50198e-07
0.000104131
4.55841e-07
0.000103968
4.60459e-07
0.000103803
4.6436e-07
0.000103638
4.67776e-07
0.000103471
4.70847e-07
0.000103304
4.73643e-07
0.000103136
4.76176e-07
0.000102967
4.78418e-07
0.000102798
4.80311e-07
0.000102628
4.81788e-07
0.000102458
4.82765e-07
0.000102289
4.83164e-07
0.000102119
4.8292e-07
0.00010195
4.81979e-07
0.000101782
4.80307e-07
0.000101615
4.77888e-07
0.000101449
4.74737e-07
0.000101285
4.70887e-07
0.000101122
4.66396e-07
0.000100962
4.61342e-07
0.000100803
4.55823e-07
0.000100647
4.4995e-07
0.000100494
4.43848e-07
0.000100343
4.37649e-07
0.000100194
4.31492e-07
0.000100048
4.25521e-07
9.99036e-05
4.19879e-07
9.97615e-05
4.14712e-07
9.96214e-05
4.10165e-07
9.94828e-05
4.06381e-07
9.93455e-05
4.03505e-07
9.9209e-05
4.01682e-07
9.90731e-05
4.01059e-07
9.89371e-05
4.01789e-07
9.88006e-05
4.04032e-07
9.86629e-05
4.07965e-07
9.85235e-05
4.13781e-07
9.83814e-05
4.21704e-07
9.8236e-05
4.3199e-07
9.80862e-05
4.44942e-07
9.79311e-05
4.60922e-07
9.77694e-05
4.80367e-07
9.75996e-05
5.03807e-07
9.74204e-05
5.31886e-07
9.72296e-05
5.65394e-07
9.70253e-05
6.05303e-07
9.68048e-05
6.52811e-07
9.65651e-05
7.09408e-07
9.63025e-05
7.76954e-07
9.60127e-05
8.57792e-07
9.56904e-05
9.54894e-07
9.53293e-05
1.07206e-06
9.49215e-05
1.21422e-06
9.44574e-05
1.38779e-06
9.39253e-05
1.60126e-06
9.33104e-05
1.86596e-06
9.25947e-05
2.19711e-06
9.17559e-05
2.61542e-06
9.07671e-05
3.14907e-06
8.95967e-05
3.83637e-06
8.82103e-05
4.72873e-06
8.65766e-05
5.89285e-06
8.46815e-05
7.40885e-06
8.256e-05
9.35685e-06
8.03649e-05
1.17761e-05
7.84947e-05
1.4538e-05
1.69967e-05
7.75853e-05
0.000114003
1.56114e-07
0.000113886
4.54348e-07
0.000113692
7.44753e-07
0.000113454
8.95021e-07
0.000113214
8.90516e-07
0.000112994
8.00172e-07
0.0001128
6.99234e-07
0.000112624
6.28137e-07
0.000112459
5.93421e-07
0.000112296
5.85025e-07
0.000112133
5.90412e-07
0.000111968
6.0068e-07
0.0001118
6.11215e-07
0.00011163
6.20331e-07
0.000111458
6.27813e-07
0.000111285
6.33974e-07
0.000111111
6.39205e-07
0.000110935
6.43801e-07
0.000110759
6.47946e-07
0.000110581
6.51725e-07
0.000110403
6.55154e-07
0.000110224
6.58193e-07
0.000110045
6.60767e-07
0.000109865
6.62779e-07
0.000109685
6.64121e-07
0.000109505
6.64692e-07
0.000109326
6.64395e-07
0.000109147
6.63163e-07
0.000108968
6.60948e-07
0.000108791
6.57735e-07
0.000108615
6.53539e-07
0.00010844
6.48407e-07
0.000108268
6.42416e-07
0.000108097
6.35673e-07
0.000107929
6.2831e-07
0.000107763
6.20477e-07
0.000107599
6.12343e-07
0.000107437
6.04089e-07
0.000107278
5.95903e-07
0.000107122
5.87978e-07
0.000106967
5.8051e-07
0.000106815
5.73695e-07
0.000106664
5.67731e-07
0.000106515
5.62813e-07
0.000106367
5.59136e-07
0.00010622
5.56897e-07
0.000106073
5.56295e-07
0.000105926
5.57537e-07
0.000105778
5.60839e-07
0.000105629
5.66439e-07
0.000105478
5.74598e-07
0.000105324
5.85613e-07
0.000105167
5.99827e-07
0.000105005
6.17644e-07
0.000104837
6.39546e-07
0.000104662
6.66108e-07
0.00010448
6.98028e-07
0.000104287
7.3615e-07
0.000104083
7.81504e-07
0.000103865
8.35346e-07
0.000103631
8.9922e-07
0.000103378
9.75025e-07
0.000103103
1.06511e-06
0.000102801
1.17241e-06
0.000102468
1.3006e-06
0.000102099
1.45429e-06
0.000101687
1.63936e-06
0.000101225
1.86334e-06
0.000100704
2.13591e-06
0.000100114
2.4696e-06
9.94438e-05
2.8807e-06
9.86825e-05
3.39034e-06
9.78194e-05
4.02576e-06
9.6848e-05
4.82149e-06
9.57707e-05
5.81967e-06
9.46092e-05
7.068e-06
9.342e-05
8.61165e-06
9.23177e-05
1.04728e-05
9.15008e-05
1.26065e-05
9.12391e-05
1.48133e-05
1.65995e-05
9.16497e-05
0.000121994
1.91545e-07
0.000121881
5.67193e-07
0.000121688
9.37725e-07
0.000121446
1.13644e-06
0.000121196
1.14045e-06
0.000120964
1.03315e-06
0.000120754
9.08544e-07
0.000120564
8.18602e-07
0.000120384
7.7311e-07
0.000120209
7.60535e-07
0.000120034
7.65656e-07
0.000119857
7.77398e-07
0.000119679
7.89895e-07
0.000119498
8.00908e-07
0.000119316
8.10055e-07
0.000119133
8.17658e-07
0.000118949
8.24154e-07
0.000118763
8.29889e-07
0.000118576
8.35078e-07
0.000118389
8.39824e-07
0.000118201
8.44132e-07
0.000118012
8.47961e-07
0.000117823
8.51211e-07
0.000117633
8.53759e-07
0.000117443
8.55473e-07
0.000117254
8.56222e-07
0.000117064
8.55893e-07
0.000116875
8.54397e-07
0.000116687
8.51677e-07
0.000116499
8.47715e-07
0.000116313
8.42528e-07
0.000116129
8.36178e-07
0.000115946
8.28761e-07
0.000115765
8.20413e-07
0.000115587
8.11297e-07
0.00011541
8.01608e-07
0.000115236
7.91553e-07
0.000115064
7.81362e-07
0.000114895
7.71272e-07
0.000114727
7.61527e-07
0.000114562
7.52374e-07
0.000114399
7.4406e-07
0.000114237
7.36836e-07
0.000114076
7.30948e-07
0.000113917
7.26642e-07
0.000113758
7.24166e-07
0.0001136
7.2377e-07
0.000113441
7.25715e-07
0.000113281
7.30273e-07
0.00011312
7.3774e-07
0.000112956
7.48442e-07
0.00011279
7.62745e-07
0.00011262
7.81078e-07
0.000112445
8.03935e-07
0.000112264
8.31906e-07
0.000112077
8.65691e-07
0.000111881
9.06138e-07
0.000111675
9.54261e-07
0.000111458
1.01129e-06
0.000111228
1.07872e-06
0.000110982
1.15835e-06
0.000110718
1.25239e-06
0.000110433
1.36355e-06
0.000110124
1.49512e-06
0.000109788
1.6512e-06
0.000109419
1.8368e-06
0.000109015
2.0582e-06
0.000108569
2.32318e-06
0.000108078
2.64143e-06
0.000107537
3.02506e-06
0.000106943
3.48906e-06
0.000106296
4.05182e-06
0.000105601
4.73546e-06
0.000104871
5.56556e-06
0.000104136
6.56959e-06
0.000103446
7.77261e-06
0.000102884
9.18794e-06
0.000102573
1.07992e-05
0.000102663
1.25305e-05
0.000103287
1.42041e-05
1.55035e-05
0.000104397
0.000130545
2.22975e-07
0.000130439
6.72927e-07
0.000130253
1.12449e-06
0.000130012
1.37733e-06
0.000129755
1.39734e-06
0.000129509
1.27907e-06
0.000129284
1.13384e-06
0.000129077
1.02554e-06
0.000128882
9.68314e-07
0.000128692
9.50134e-07
0.000128504
9.53659e-07
0.000128316
9.65862e-07
0.000128127
9.79622e-07
0.000127936
9.92072e-07
0.000127743
1.00259e-06
0.00012755
1.01145e-06
0.000127356
1.01908e-06
0.00012716
1.02587e-06
0.000126964
1.03204e-06
0.000126767
1.03769e-06
0.000126569
1.04284e-06
0.000126371
1.04742e-06
0.000126172
1.05131e-06
0.000125972
1.05438e-06
0.000125773
1.05645e-06
0.000125574
1.05739e-06
0.000125375
1.05704e-06
0.000125176
1.05532e-06
0.000124978
1.05215e-06
0.000124781
1.0475e-06
0.000124586
1.04141e-06
0.000124391
1.03395e-06
0.000124199
1.02523e-06
0.000124008
1.01541e-06
0.000123819
1.0047e-06
0.000123632
9.93315e-07
0.000123448
9.81518e-07
0.000123265
9.69577e-07
0.000123085
9.57779e-07
0.000122907
9.46416e-07
0.00012273
9.35783e-07
0.000122556
9.26183e-07
0.000122383
9.17911e-07
0.00012221
9.11264e-07
0.000122039
9.0654e-07
0.000121869
9.04034e-07
0.000121698
9.04047e-07
0.000121527
9.06889e-07
0.000121354
9.12885e-07
0.00012118
9.22385e-07
0.000121004
9.35773e-07
0.000120825
9.53483e-07
0.000120642
9.7601e-07
0.000120454
1.00393e-06
0.00012026
1.03793e-06
0.00012006
1.0788e-06
0.000119852
1.12751e-06
0.000119634
1.1852e-06
0.000119406
1.25325e-06
0.000119165
1.33329e-06
0.00011891
1.42732e-06
0.000118639
1.5377e-06
0.00011835
1.66728e-06
0.000118041
1.81951e-06
0.000117708
1.99852e-06
0.000117351
2.20931e-06
0.000116966
2.4579e-06
0.000116553
2.75151e-06
0.000116111
3.09881e-06
0.000115641
3.51006e-06
0.000115149
3.99727e-06
0.000114642
4.57413e-06
0.000114137
5.25562e-06
0.000113661
6.05691e-06
0.000113256
6.99106e-06
0.000112979
8.06464e-06
0.000112912
9.2702e-06
0.000113152
1.05747e-05
0.000113794
1.19042e-05
0.000114886
1.31283e-05
1.40601e-05
0.000116344
0.000139696
2.49339e-07
0.000139601
7.68435e-07
0.000139425
1.30065e-06
0.000139189
1.61352e-06
0.000138928
1.65846e-06
0.00013867
1.53694e-06
0.000138428
1.37546e-06
0.000138204
1.24998e-06
0.000137992
1.18019e-06
0.000137787
1.15481e-06
0.000137586
1.15514e-06
0.000137386
1.16652e-06
0.000137185
1.18062e-06
0.000136983
1.19389e-06
0.000136781
1.20538e-06
0.000136577
1.21521e-06
0.000136373
1.22379e-06
0.000136168
1.23149e-06
0.000135962
1.23852e-06
0.000135756
1.24499e-06
0.000135549
1.2509e-06
0.000135341
1.25616e-06
0.000135133
1.26065e-06
0.000134925
1.26419e-06
0.000134716
1.26661e-06
0.000134508
1.26772e-06
0.0001343
1.26738e-06
0.000134092
1.26546e-06
0.000133885
1.2619e-06
0.000133679
1.25667e-06
0.000133474
1.24979e-06
0.000133271
1.24136e-06
0.000133068
1.23151e-06
0.000132868
1.22041e-06
0.000132669
1.20831e-06
0.000132472
1.19547e-06
0.000132277
1.18217e-06
0.000132084
1.16873e-06
0.000131893
1.15548e-06
0.000131704
1.14277e-06
0.000131516
1.13092e-06
0.00013133
1.12029e-06
0.000131145
1.11122e-06
0.000130961
1.10407e-06
0.000130778
1.09916e-06
0.000130595
1.09684e-06
0.000130412
1.09745e-06
0.000130228
1.10136e-06
0.000130043
1.10893e-06
0.000129856
1.12056e-06
0.000129667
1.13668e-06
0.000129475
1.15778e-06
0.000129279
1.18441e-06
0.000129079
1.2172e-06
0.000128873
1.25691e-06
0.000128661
1.3044e-06
0.000128442
1.36071e-06
0.000128214
1.42705e-06
0.000127977
1.50487e-06
0.00012773
1.59587e-06
0.00012747
1.70206e-06
0.000127197
1.82584e-06
0.00012691
1.96999e-06
0.000126607
2.13781e-06
0.000126288
2.33317e-06
0.000125953
2.56058e-06
0.000125602
2.82526e-06
0.000125236
3.13324e-06
0.00012486
3.49135e-06
0.00012448
3.90717e-06
0.000124104
4.38891e-06
0.00012375
4.94497e-06
0.000123439
5.58318e-06
0.000123203
6.30958e-06
0.000123085
7.12621e-06
0.000123138
8.02784e-06
0.000123428
8.99731e-06
0.000124019
9.99951e-06
0.000124965
1.09753e-05
0.000126271
1.18388e-05
1.24847e-05
0.000127862
0.000149489
2.70012e-07
0.000149406
8.51512e-07
0.000149244
1.46275e-06
0.000149016
1.84129e-06
0.000148754
1.9209e-06
0.000148486
1.80517e-06
0.000148228
1.633e-06
0.000147986
1.49224e-06
0.000147757
1.40936e-06
0.000147537
1.3752e-06
0.000147321
1.37061e-06
0.000147108
1.3797e-06
0.000146896
1.39306e-06
0.000146684
1.40639e-06
0.000146471
1.41832e-06
0.000146258
1.42876e-06
0.000146044
1.43803e-06
0.00014583
1.44644e-06
0.000145615
1.45418e-06
0.0001454
1.46134e-06
0.000145184
1.46789e-06
0.000144967
1.47375e-06
0.000144751
1.47875e-06
0.000144534
1.48271e-06
0.000144317
1.48543e-06
0.0001441
1.48671e-06
0.000143883
1.48639e-06
0.000143667
1.48433e-06
0.000143451
1.48046e-06
0.000143236
1.47475e-06
0.000143023
1.46724e-06
0.00014281
1.45802e-06
0.000142599
1.44724e-06
0.000142389
1.43511e-06
0.00014218
1.42189e-06
0.000141974
1.40786e-06
0.000141769
1.39336e-06
0.000141565
1.37873e-06
0.000141363
1.36435e-06
0.000141163
1.35059e-06
0.000140964
1.33784e-06
0.000140766
1.32648e-06
0.00014057
1.3169e-06
0.000140374
1.30949e-06
0.000140178
1.30462e-06
0.000139982
1.30268e-06
0.000139787
1.30406e-06
0.00013959
1.30914e-06
0.000139393
1.31833e-06
0.000139193
1.33207e-06
0.000138992
1.35083e-06
0.000138787
1.37512e-06
0.00013858
1.40554e-06
0.000138368
1.44275e-06
0.000138151
1.48753e-06
0.00013793
1.54077e-06
0.000137702
1.60354e-06
0.000137467
1.67705e-06
0.000137225
1.76273e-06
0.000136974
1.86223e-06
0.000136715
1.97748e-06
0.000136446
2.1107e-06
0.000136168
2.26442e-06
0.000135881
2.44156e-06
0.000135586
2.64538e-06
0.000135284
2.87957e-06
0.000134978
3.1482e-06
0.000134673
3.45565e-06
0.000134375
3.80657e-06
0.000134094
4.20562e-06
0.000133844
4.6572e-06
0.000133641
5.16491e-06
0.000133511
5.73083e-06
0.000133484
6.35437e-06
0.000133598
7.03082e-06
0.000133894
7.74932e-06
0.000134418
8.49055e-06
0.000135211
9.22441e-06
0.000136295
9.90857e-06
0.000137662
1.04898e-05
1.09103e-05
0.000139254
0.000159967
2.84945e-07
0.000159898
9.21173e-07
0.000159752
1.60869e-06
0.000159535
2.0578e-06
0.000159274
2.18186e-06
0.000158998
2.0816e-06
0.000158726
1.90516e-06
0.000158466
1.7518e-06
0.00015822
1.65582e-06
0.000157984
1.61151e-06
0.000157754
1.60029e-06
0.000157529
1.60557e-06
0.000157305
1.61699e-06
0.000157082
1.62952e-06
0.000156859
1.64128e-06
0.000156637
1.6519e-06
0.000156414
1.66154e-06
0.000156191
1.6704e-06
0.000155967
1.67866e-06
0.000155743
1.68634e-06
0.000155518
1.6934e-06
0.000155294
1.69974e-06
0.000155069
1.70516e-06
0.000154844
1.70947e-06
0.000154619
1.71245e-06
0.000154394
1.71388e-06
0.000154169
1.7136e-06
0.000153945
1.71145e-06
0.000153721
1.70737e-06
0.000153498
1.70132e-06
0.000153276
1.69334e-06
0.000153054
1.68354e-06
0.000152834
1.67209e-06
0.000152615
1.6592e-06
0.000152397
1.64516e-06
0.000152181
1.63028e-06
0.000151966
1.61491e-06
0.000151752
1.59945e-06
0.00015154
1.58428e-06
0.000151329
1.56982e-06
0.000151118
1.55649e-06
0.000150909
1.54471e-06
0.000150701
1.5349e-06
0.000150493
1.52748e-06
0.000150285
1.52286e-06
0.000150077
1.52146e-06
0.000149869
1.52368e-06
0.00014966
1.52995e-06
0.00014945
1.5407e-06
0.000149239
1.55638e-06
0.000149026
1.57749e-06
0.00014881
1.60454e-06
0.000148592
1.63815e-06
0.00014837
1.67899e-06
0.000148145
1.72781e-06
0.000147916
1.7855e-06
0.000147682
1.85307e-06
0.000147444
1.93167e-06
0.0001472
2.02262e-06
0.000146952
2.12743e-06
0.000146699
2.2478e-06
0.000146441
2.38562e-06
0.00014618
2.543e-06
0.000145917
2.72227e-06
0.000145655
2.92591e-06
0.000145396
3.15657e-06
0.000145146
3.41695e-06
0.00014491
3.70972e-06
0.000144698
4.03733e-06
0.00014452
4.4018e-06
0.000144392
4.80432e-06
0.000144331
5.24487e-06
0.000144359
5.72158e-06
0.000144502
6.23002e-06
0.000144789
6.76236e-06
0.000145251
7.30642e-06
0.000145916
7.84483e-06
0.000146804
8.35458e-06
0.000147924
8.80738e-06
0.000149261
9.17154e-06
9.41604e-06
0.000150774
0.000171178
2.94637e-07
0.000171122
9.77699e-07
0.000170993
1.73792e-06
0.000170789
2.26135e-06
0.000170532
2.43886e-06
0.00017025
2.36369e-06
0.000169965
2.18992e-06
0.00016969
2.02731e-06
0.000169427
1.91881e-06
0.000169175
1.86341e-06
0.000168932
1.84407e-06
0.000168694
1.84408e-06
0.000168458
1.85237e-06
0.000168225
1.86317e-06
0.000167993
1.87409e-06
0.000167761
1.88441e-06
0.000167529
1.89404e-06
0.000167297
1.90308e-06
0.000167065
1.91162e-06
0.000166832
1.91964e-06
0.0001666
1.92706e-06
0.000166367
1.93374e-06
0.000166134
1.93948e-06
0.000165902
1.94406e-06
0.000165669
1.94725e-06
0.000165436
1.94882e-06
0.000165204
1.9486e-06
0.000164972
1.94643e-06
0.000164741
1.94225e-06
0.00016451
1.93601e-06
0.000164279
1.92776e-06
0.00016405
1.91762e-06
0.000163821
1.90576e-06
0.000163593
1.89242e-06
0.000163366
1.87789e-06
0.000163141
1.86251e-06
0.000162916
1.84664e-06
0.000162692
1.8307e-06
0.000162469
1.8151e-06
0.000162247
1.80029e-06
0.000162026
1.78671e-06
0.000161805
1.7748e-06
0.000161585
1.76501e-06
0.000161365
1.75779e-06
0.000161146
1.75356e-06
0.000160926
1.75276e-06
0.000160706
1.75582e-06
0.000160486
1.76316e-06
0.000160265
1.77524e-06
0.000160042
1.7925e-06
0.000159819
1.81544e-06
0.000159593
1.84457e-06
0.000159366
1.88046e-06
0.000159137
1.92377e-06
0.000158906
1.97519e-06
0.000158672
2.03555e-06
0.000158436
2.10574e-06
0.000158199
2.18678e-06
0.000157959
2.2798e-06
0.000157718
2.38606e-06
0.000157477
2.50693e-06
0.000157237
2.64387e-06
0.000157001
2.79846e-06
0.000156769
2.97229e-06
0.000156547
3.16699e-06
0.000156339
3.38411e-06
0.000156151
3.62503e-06
0.000155989
3.89081e-06
0.000155864
4.18208e-06
0.000155787
4.49872e-06
0.000155772
4.83968e-06
0.000155834
5.20261e-06
0.000155992
5.5835e-06
0.000156266
5.97632e-06
0.000156676
6.37265e-06
0.000157241
6.7614e-06
0.000157977
7.12876e-06
0.000158893
7.4584e-06
0.000159988
7.73232e-06
0.000161247
7.93225e-06
8.04193e-06
0.000162641
0.000183174
2.99997e-07
0.000183129
1.02246e-06
0.000183016
1.85128e-06
0.000182826
2.45143e-06
0.000182574
2.68998e-06
0.000182289
2.64881e-06
0.000181995
2.48468e-06
0.000181705
2.31673e-06
0.000181427
2.19695e-06
0.000181161
2.13006e-06
0.000180904
2.10149e-06
0.000180653
2.09497e-06
0.000180407
2.099e-06
0.000180163
2.10719e-06
0.000179921
2.11658e-06
0.00017968
2.12606e-06
0.000179439
2.13529e-06
0.000179199
2.1442e-06
0.000178958
2.15277e-06
0.000178718
2.16092e-06
0.000178478
2.16853e-06
0.000178238
2.17542e-06
0.000177998
2.18138e-06
0.000177757
2.18616e-06
0.000177517
2.18952e-06
0.000177277
2.19123e-06
0.000177038
2.19111e-06
0.000176798
2.189e-06
0.000176559
2.18483e-06
0.000176321
2.17856e-06
0.000176082
2.17026e-06
0.000175845
2.16002e-06
0.000175608
2.14805e-06
0.000175371
2.13457e-06
0.000175136
2.11988e-06
0.000174901
2.10435e-06
0.000174666
2.08834e-06
0.000174433
2.07228e-06
0.000174199
2.0566e-06
0.000173967
2.04176e-06
0.000173735
2.02821e-06
0.000173504
2.01642e-06
0.000173272
2.00685e-06
0.000173042
1.99994e-06
0.000172811
1.99614e-06
0.00017258
1.9959e-06
0.000172349
1.99963e-06
0.000172118
2.00777e-06
0.000171887
2.02075e-06
0.000171655
2.03901e-06
0.000171422
2.06299e-06
0.000171189
2.0932e-06
0.000170956
2.13014e-06
0.000170722
2.17439e-06
0.000170488
2.22657e-06
0.000170253
2.28736e-06
0.000170019
2.35751e-06
0.000169786
2.43784e-06
0.000169556
2.52922e-06
0.000169328
2.6326e-06
0.000169105
2.74894e-06
0.00016889
2.87923e-06
0.000168683
3.02442e-06
0.00016849
3.18541e-06
0.000168315
3.36295e-06
0.000168162
3.5576e-06
0.000168038
3.76959e-06
0.000167951
3.99873e-06
0.00016791
4.24425e-06
0.000167925
4.50465e-06
0.000168008
4.77753e-06
0.000168172
5.05941e-06
0.000168432
5.34552e-06
0.0001688
5.62976e-06
0.000169289
5.90455e-06
0.000169911
6.16093e-06
0.000170672
6.38876e-06
0.000171575
6.57713e-06
0.000172613
6.71505e-06
0.000173774
6.79236e-06
6.80086e-06
0.000175036
0.000196008
3.02118e-07
0.000195973
1.05748e-06
0.000195873
1.95064e-06
0.000195696
2.62852e-06
0.000195452
2.93399e-06
0.000195167
2.93452e-06
0.000194865
2.78666e-06
0.000194564
2.61759e-06
0.000194273
2.4884e-06
0.000193993
2.41023e-06
0.000193723
2.37177e-06
0.00019346
2.35776e-06
0.000193203
2.35658e-06
0.000192949
2.36132e-06
0.000192698
2.36852e-06
0.000192447
2.37663e-06
0.000192198
2.38504e-06
0.00019195
2.3935e-06
0.000191702
2.40184e-06
0.000191454
2.40992e-06
0.000191206
2.41756e-06
0.000190959
2.42454e-06
0.000190711
2.43062e-06
0.000190464
2.43554e-06
0.000190217
2.43905e-06
0.00018997
2.44091e-06
0.000189723
2.44094e-06
0.000189476
2.43898e-06
0.00018923
2.43495e-06
0.000188984
2.42884e-06
0.000188738
2.42069e-06
0.000188492
2.41061e-06
0.000188247
2.39879e-06
0.000188002
2.38548e-06
0.000187758
2.37096e-06
0.000187514
2.3556e-06
0.00018727
2.33978e-06
0.000187027
2.32392e-06
0.000186784
2.30845e-06
0.000186541
2.29384e-06
0.000186299
2.28055e-06
0.000186057
2.26903e-06
0.000185816
2.25976e-06
0.000185574
2.25317e-06
0.000185333
2.24972e-06
0.000185092
2.24983e-06
0.000184852
2.25391e-06
0.000184612
2.26236e-06
0.000184372
2.27559e-06
0.000184132
2.29399e-06
0.000183893
2.31798e-06
0.000183655
2.34795e-06
0.000183418
2.38437e-06
0.000183182
2.42768e-06
0.000182949
2.47837e-06
0.000182717
2.53698e-06
0.00018249
2.60405e-06
0.000182267
2.68015e-06
0.00018205
2.76588e-06
0.000181841
2.86181e-06
0.000181642
2.96849e-06
0.000181455
3.0864e-06
0.000181285
3.21594e-06
0.000181134
3.35733e-06
0.000181008
3.5106e-06
0.000180912
3.67547e-06
0.000180852
3.85134e-06
0.000180835
4.03713e-06
0.000180871
4.23122e-06
0.000180966
4.43137e-06
0.000181132
4.63462e-06
0.000181376
4.83721e-06
0.00018171
5.03458e-06
0.000182141
5.22134e-06
0.000182677
5.3914e-06
0.000183322
5.53809e-06
0.000184079
5.65443e-06
0.000184945
5.7335e-06
0.000185914
5.76892e-06
0.000186973
5.75534e-06
5.68894e-06
0.000188108
0.000209739
3.02086e-07
0.000209712
1.08508e-06
0.000209624
2.03841e-06
0.000209459
2.79386e-06
0.000209222
3.1703e-06
0.000208938
3.21876e-06
0.000208632
3.09316e-06
0.000208322
2.92728e-06
0.00020802
2.79101e-06
0.000207728
2.70236e-06
0.000207446
2.65385e-06
0.000207172
2.63174e-06
0.000206904
2.62461e-06
0.000206641
2.62521e-06
0.00020638
2.6296e-06
0.000206122
2.63585e-06
0.000205864
2.64305e-06
0.000205608
2.65073e-06
0.000205352
2.65861e-06
0.000205097
2.66642e-06
0.000204842
2.67394e-06
0.000204587
2.68089e-06
0.000204333
2.68702e-06
0.000204078
2.69203e-06
0.000203824
2.69568e-06
0.00020357
2.69772e-06
0.000203316
2.69797e-06
0.000203063
2.69627e-06
0.000202809
2.69253e-06
0.000202555
2.68675e-06
0.000202302
2.67896e-06
0.000202049
2.66927e-06
0.000201796
2.65787e-06
0.000201543
2.64499e-06
0.00020129
2.63093e-06
0.000201037
2.61602e-06
0.000200784
2.60065e-06
0.000200532
2.58522e-06
0.000200279
2.57018e-06
0.000200027
2.55596e-06
0.000199775
2.54303e-06
0.000199524
2.53183e-06
0.000199273
2.52281e-06
0.000199022
2.51642e-06
0.000198772
2.51305e-06
0.000198523
2.51312e-06
0.000198274
2.517e-06
0.000198027
2.52506e-06
0.00019778
2.53765e-06
0.000197536
2.55509e-06
0.000197293
2.57773e-06
0.000197052
2.60588e-06
0.000196815
2.63988e-06
0.000196581
2.68005e-06
0.000196352
2.72673e-06
0.000196128
2.78025e-06
0.000195911
2.84095e-06
0.000195703
2.90914e-06
0.000195504
2.9851e-06
0.000195318
3.06905e-06
0.000195147
3.16115e-06
0.000194994
3.26143e-06
0.000194862
3.36979e-06
0.000194756
3.48592e-06
0.00019468
3.60927e-06
0.00019464
3.73902e-06
0.00019464
3.874e-06
0.000194688
4.01264e-06
0.00019479
4.15295e-06
0.000194952
4.29244e-06
0.000195183
4.42816e-06
0.000195487
4.55665e-06
0.000195871
4.67401e-06
0.000196341
4.77594e-06
0.000196898
4.85789e-06
0.000197545
4.91524e-06
0.00019828
4.94347e-06
0.000199099
4.93846e-06
0.000199995
4.89674e-06
0.000200958
4.81577e-06
4.69412e-06
0.000201977
0.000224432
3.00843e-07
0.000224409
1.10747e-06
0.000224331
2.11717e-06
0.000224175
2.94911e-06
0.000223947
3.3989e-06
0.000223666
3.5e-06
0.000223357
3.4018e-06
0.000223041
3.24325e-06
0.00022273
3.10257e-06
0.000222428
3.00471e-06
0.000222135
2.94647e-06
0.000221851
2.91603e-06
0.000221574
2.90246e-06
0.000221301
2.89837e-06
0.000221032
2.89944e-06
0.000220765
2.90339e-06
0.0002205
2.90901e-06
0.000220236
2.91563e-06
0.000219972
2.92281e-06
0.00021971
2.93019e-06
0.000219448
2.93745e-06
0.000219186
2.94429e-06
0.000218925
2.9504e-06
0.000218664
2.9555e-06
0.000218402
2.95931e-06
0.000218142
2.96158e-06
0.000217881
2.96213e-06
0.00021762
2.96079e-06
0.000217359
2.9575e-06
0.000217098
2.95221e-06
0.000216837
2.94497e-06
0.000216577
2.93588e-06
0.000216315
2.92511e-06
0.000216054
2.91288e-06
0.000215793
2.89948e-06
0.000215532
2.88522e-06
0.000215271
2.87047e-06
0.00021501
2.85563e-06
0.000214749
2.8411e-06
0.000214488
2.82732e-06
0.000214227
2.81472e-06
0.000213968
2.80373e-06
0.000213708
2.79476e-06
0.00021345
2.78822e-06
0.000213192
2.78449e-06
0.000212936
2.78393e-06
0.000212682
2.78685e-06
0.000212429
2.79358e-06
0.000212179
2.80437e-06
0.000211932
2.8195e-06
0.000211688
2.83918e-06
0.000211449
2.86365e-06
0.000211215
2.89309e-06
0.000210986
2.9277e-06
0.000210766
2.96763e-06
0.000210553
3.01304e-06
0.000210351
3.06401e-06
0.000210162
3.12062e-06
0.000209986
3.18285e-06
0.000209827
3.25062e-06
0.000209687
3.32375e-06
0.000209569
3.4019e-06
0.000209478
3.48458e-06
0.000209416
3.57111e-06
0.000209389
3.6606e-06
0.0002094
3.75187e-06
0.000209455
3.84351e-06
0.000209559
3.93377e-06
0.000209716
4.02063e-06
0.000209932
4.10172e-06
0.00021021
4.17444e-06
0.000210556
4.23589e-06
0.000210972
4.28301e-06
0.000211461
4.31262e-06
0.000212023
4.32158e-06
0.000212656
4.30685e-06
0.000213359
4.26573e-06
0.000214127
4.19597e-06
0.000214953
4.0959e-06
0.000215829
3.96462e-06
3.80193e-06
0.000216746
0.000240153
2.99114e-07
0.000240133
1.12662e-06
0.000240061
2.18938e-06
0.000239914
3.09607e-06
0.000239693
3.6202e-06
0.000239416
3.77721e-06
0.000239107
3.71057e-06
0.000238787
3.56318e-06
0.000238469
3.42085e-06
0.000238159
3.31544e-06
0.000237857
3.24818e-06
0.000237564
3.20952e-06
0.000237277
3.18931e-06
0.000236996
3.18016e-06
0.000236719
3.17753e-06
0.000236444
3.17883e-06
0.000236171
3.18257e-06
0.0002359
3.18787e-06
0.000235629
3.19415e-06
0.00023536
3.20095e-06
0.000235091
3.20785e-06
0.000234823
3.21452e-06
0.000234555
3.2206e-06
0.000234287
3.22578e-06
0.000234019
3.22978e-06
0.000233751
3.23236e-06
0.000233484
3.23329e-06
0.000233216
3.23244e-06
0.000232948
3.22971e-06
0.00023268
3.22507e-06
0.000232412
3.21853e-06
0.000232144
3.21019e-06
0.000231875
3.20021e-06
0.000231606
3.18877e-06
0.000231337
3.17615e-06
0.000231068
3.16264e-06
0.000230799
3.14857e-06
0.00023053
3.13432e-06
0.000230261
3.12027e-06
0.000229993
3.10682e-06
0.000229725
3.09436e-06
0.000229458
3.08328e-06
0.000229192
3.07397e-06
0.000228928
3.06677e-06
0.000228665
3.06202e-06
0.000228404
3.06001e-06
0.000228146
3.06099e-06
0.000227891
3.0652e-06
0.00022764
3.07283e-06
0.000227394
3.08405e-06
0.000227153
3.09897e-06
0.000226918
3.11769e-06
0.000226691
3.14029e-06
0.000226472
3.16679e-06
0.000226264
3.19719e-06
0.000226067
3.23144e-06
0.000225884
3.26945e-06
0.000225716
3.31105e-06
0.000225566
3.35599e-06
0.000225436
3.40394e-06
0.000225329
3.45444e-06
0.000225249
3.50693e-06
0.000225197
3.56065e-06
0.000225179
3.61472e-06
0.000225196
3.66805e-06
0.000225254
3.71936e-06
0.000225356
3.7672e-06
0.000225506
3.80989e-06
0.000225707
3.84559e-06
0.000225963
3.87229e-06
0.000226276
3.88784e-06
0.000226648
3.89004e-06
0.000227081
3.87663e-06
0.000227575
3.84544e-06
0.000228128
3.79442e-06
0.00022874
3.72177e-06
0.000229406
3.626e-06
0.000230123
3.50608e-06
0.000230884
3.36146e-06
0.000231683
3.19213e-06
2.99856e-06
0.000232512
0.000256974
2.97429e-07
0.000256956
1.14411e-06
0.000256889
2.25718e-06
0.000256748
3.23654e-06
0.000256534
3.83488e-06
0.000256261
4.04975e-06
0.000255954
4.01789e-06
0.000255632
3.885e-06
0.000255309
3.74376e-06
0.000254992
3.63264e-06
0.000254683