/*--------------------------------*- C++ -*----------------------------------*\
| =========                 |                                                 |
| \\      /  F ield         | OpenFOAM: The Open Source CFD Toolbox           |
|  \\    /   O peration     | Version:  5.x                                   |
|   \\  /    A nd           | Web:      www.OpenFOAM.org                      |
|    \\/     M anipulation  |                                                 |
\*---------------------------------------------------------------------------*/
FoamFile
{
    version     2.0;
    format      ascii;
    class       surfaceScalarField;
    location    "0.6";
    object      phi;
}
// * * * * * * * * * * * * * * * * * * * * * * * * * * * * * * * * * * * * * //

dimensions      [1 0 -1 0 0 0 0];

internalField   nonuniform List<scalar> 
23692
(
9.30741e-05
5.4257e-09
9.30468e-05
2.7333e-08
9.29831e-05
6.37751e-08
9.28788e-05
1.0432e-07
9.27421e-05
1.36846e-07
9.25878e-05
1.54383e-07
9.24307e-05
1.57232e-07
9.22804e-05
1.50463e-07
9.21406e-05
1.40067e-07
9.20105e-05
1.30358e-07
9.18875e-05
1.23312e-07
9.17687e-05
1.19145e-07
9.16519e-05
1.17183e-07
9.15359e-05
1.1656e-07
9.14199e-05
1.16569e-07
9.13038e-05
1.1675e-07
9.11877e-05
1.16861e-07
9.10718e-05
1.168e-07
9.09562e-05
1.16545e-07
9.08412e-05
1.16108e-07
9.07269e-05
1.15506e-07
9.06135e-05
1.14755e-07
9.05012e-05
1.13865e-07
9.03901e-05
1.12835e-07
9.02802e-05
1.11666e-07
9.01719e-05
1.10352e-07
9.00652e-05
1.08887e-07
8.99604e-05
1.07263e-07
8.98575e-05
1.05477e-07
8.97567e-05
1.03526e-07
8.96583e-05
1.01417e-07
8.95624e-05
9.91566e-08
8.9469e-05
9.67567e-08
8.93784e-05
9.42392e-08
8.92906e-05
9.1629e-08
8.92057e-05
8.89526e-08
8.91237e-05
8.62489e-08
8.90447e-05
8.35531e-08
8.89685e-05
8.09093e-08
8.8895e-05
7.83628e-08
8.88242e-05
7.59626e-08
8.87557e-05
7.37607e-08
8.86894e-05
7.18108e-08
8.8625e-05
7.0168e-08
8.8562e-05
6.88917e-08
8.85e-05
6.80415e-08
8.84386e-05
6.76818e-08
8.83771e-05
6.78791e-08
8.8315e-05
6.87072e-08
8.82515e-05
7.02424e-08
8.81858e-05
7.25698e-08
8.81171e-05
7.57872e-08
8.80442e-05
8.00012e-08
8.79662e-05
8.53345e-08
8.78817e-05
9.19327e-08
8.77892e-05
9.99624e-08
8.76872e-05
1.09625e-07
8.75737e-05
1.21158e-07
8.74466e-05
1.34853e-07
8.73033e-05
1.51062e-07
8.7141e-05
1.70218e-07
8.69561e-05
1.92863e-07
8.67444e-05
2.19669e-07
8.65009e-05
2.51493e-07
8.62196e-05
2.89428e-07
8.58928e-05
3.34891e-07
8.55111e-05
3.89742e-07
8.50627e-05
4.56461e-07
8.45324e-05
5.384e-07
8.39004e-05
6.40177e-07
8.31402e-05
7.68266e-07
8.22163e-05
9.31914e-07
8.10798e-05
1.14459e-06
7.96615e-05
1.42632e-06
7.78621e-05
1.80739e-06
7.55355e-05
2.33446e-06
7.24635e-05
3.07994e-06
6.83134e-05
4.15789e-06
6.25604e-05
5.76087e-06
5.43178e-05
8.25027e-06
1.25867e-05
4.17388e-05
9.95941e-05
1.06871e-08
9.95656e-05
5.58143e-08
9.94985e-05
1.30965e-07
9.93881e-05
2.14778e-07
9.92428e-05
2.82197e-07
9.90786e-05
3.18744e-07
9.8911e-05
3.2494e-07
9.87505e-05
3.11206e-07
9.86009e-05
2.89887e-07
9.84616e-05
2.69896e-07
9.83299e-05
2.55349e-07
9.82027e-05
2.46706e-07
9.80778e-05
2.42603e-07
9.79536e-05
2.41267e-07
9.78296e-05
2.41238e-07
9.77054e-05
2.41577e-07
9.75813e-05
2.41777e-07
9.74574e-05
2.41634e-07
9.73339e-05
2.411e-07
9.7211e-05
2.40191e-07
9.70889e-05
2.38948e-07
9.69677e-05
2.37399e-07
9.68477e-05
2.35566e-07
9.67289e-05
2.33452e-07
9.66115e-05
2.31052e-07
9.64956e-05
2.28355e-07
9.63815e-05
2.25346e-07
9.62693e-05
2.22014e-07
9.61592e-05
2.1835e-07
9.60514e-05
2.14354e-07
9.5946e-05
2.1003e-07
9.58431e-05
2.05398e-07
9.57431e-05
2.00486e-07
9.56459e-05
1.95332e-07
9.55516e-05
1.89986e-07
9.54604e-05
1.84513e-07
9.53722e-05
1.78981e-07
9.52871e-05
1.7347e-07
9.5205e-05
1.6807e-07
9.51257e-05
1.62874e-07
9.50492e-05
1.57983e-07
9.49751e-05
1.53501e-07
9.49033e-05
1.49541e-07
9.48333e-05
1.46219e-07
9.47649e-05
1.43653e-07
9.46975e-05
1.41968e-07
9.46306e-05
1.41294e-07
9.45635e-05
1.41772e-07
9.44957e-05
1.43546e-07
9.44264e-05
1.4678e-07
9.43547e-05
1.51648e-07
9.42797e-05
1.58343e-07
9.42003e-05
1.6709e-07
9.41152e-05
1.78137e-07
9.40233e-05
1.91778e-07
9.39229e-05
2.08356e-07
9.38124e-05
2.28277e-07
9.36897e-05
2.52025e-07
9.35527e-05
2.80186e-07
9.33987e-05
3.1347e-07
9.32246e-05
3.52751e-07
9.30268e-05
3.99107e-07
9.28012e-05
4.53886e-07
9.25425e-05
5.18784e-07
9.22445e-05
5.95959e-07
9.18999e-05
6.88193e-07
9.14992e-05
7.99105e-07
9.10308e-05
9.33472e-07
9.04802e-05
1.09769e-06
8.98286e-05
1.30042e-06
8.90519e-05
1.55364e-06
8.81184e-05
1.87403e-06
8.69863e-05
2.28529e-06
8.55999e-05
2.8213e-06
8.38849e-05
3.53095e-06
8.17434e-05
4.48443e-06
7.90517e-05
5.78012e-06
7.56693e-05
7.54866e-06
7.14882e-05
9.95036e-06
6.664e-05
1.31067e-05
1.66062e-05
6.26287e-05
0.000106571
1.56271e-08
0.000106542
8.4858e-08
0.000106472
2.00554e-07
0.000106357
3.30112e-07
0.000106204
4.34875e-07
0.000106031
4.92294e-07
0.000105853
5.02878e-07
0.000105682
4.82478e-07
0.000105522
4.50047e-07
0.000105373
4.19375e-07
0.000105232
3.96898e-07
0.000105096
3.83415e-07
0.000104962
3.76904e-07
0.000104829
3.74665e-07
0.000104696
3.74475e-07
0.000104564
3.74879e-07
0.000104431
3.75108e-07
0.000104299
3.74831e-07
0.000104167
3.73966e-07
0.000104036
3.72542e-07
0.000103906
3.7061e-07
0.000103777
3.6822e-07
0.000103649
3.65394e-07
0.000103522
3.62142e-07
0.000103397
3.58457e-07
0.000103273
3.5432e-07
0.000103151
3.49712e-07
0.000103031
3.44611e-07
0.000102914
3.39004e-07
0.000102798
3.32892e-07
0.000102686
3.26287e-07
0.000102575
3.19214e-07
0.000102468
3.11716e-07
0.000102364
3.03855e-07
0.000102262
2.9571e-07
0.000102164
2.87374e-07
0.000102069
2.78958e-07
0.000101977
2.70584e-07
0.000101888
2.62386e-07
0.000101802
2.54513e-07
0.000101719
2.47117e-07
0.000101638
2.40361e-07
0.000101559
2.34416e-07
0.000101483
2.29461e-07
0.000101407
2.25677e-07
0.000101333
2.23256e-07
0.000101259
2.22401e-07
0.000101185
2.23321e-07
0.00010111
2.26246e-07
0.000101033
2.31419e-07
0.000100953
2.39107e-07
0.00010087
2.49611e-07
0.000100782
2.63263e-07
0.000100688
2.80447e-07
0.000100587
3.01605e-07
0.000100476
3.27256e-07
0.000100355
3.58009e-07
0.000100222
3.94594e-07
0.000100073
4.37882e-07
9.99063e-05
4.88934e-07
9.97191e-05
5.49041e-07
9.95075e-05
6.19793e-07
9.92673e-05
7.03161e-07
9.89937e-05
8.01611e-07
9.86806e-05
9.1825e-07
9.8321e-05
1.05704e-06
9.79063e-05
1.22308e-06
9.74261e-05
1.42298e-06
9.68675e-05
1.66547e-06
9.62151e-05
1.96209e-06
9.54497e-05
2.32836e-06
9.45477e-05
2.78523e-06
9.3481e-05
3.36117e-06
9.22168e-05
4.09475e-06
9.07191e-05
5.0377e-06
8.89555e-05
6.25711e-06
8.6911e-05
7.83367e-06
8.46203e-05
9.84835e-06
8.22382e-05
1.23414e-05
8.01703e-05
1.51835e-05
1.77195e-05
7.90658e-05
0.000114037
2.00393e-08
0.000114008
1.13691e-07
0.000113937
2.71162e-07
0.000113819
4.48567e-07
0.000113661
5.93189e-07
0.000113479
6.73808e-07
0.000113292
6.90484e-07
0.00011311
6.6436e-07
0.000112939
6.211e-07
0.000112779
5.79587e-07
0.000112628
5.48803e-07
0.000112482
5.30064e-07
0.000112338
5.20756e-07
0.000112196
5.17308e-07
0.000112055
5.16719e-07
0.000111913
5.17022e-07
0.000111772
5.17147e-07
0.000111632
5.1664e-07
0.000111491
5.15369e-07
0.000111352
5.13362e-07
0.000111213
5.10684e-07
0.000111076
5.07395e-07
0.00011094
5.03527e-07
0.000110805
4.99089e-07
0.000110671
4.94071e-07
0.00011054
4.88449e-07
0.00011041
4.82195e-07
0.000110282
4.75282e-07
0.000110157
4.67695e-07
0.000110034
4.59433e-07
0.000109913
4.50511e-07
0.000109795
4.40969e-07
0.00010968
4.30865e-07
0.000109568
4.20282e-07
0.000109459
4.09329e-07
0.000109353
3.98134e-07
0.000109251
3.86846e-07
0.000109151
3.75633e-07
0.000109055
3.64678e-07
0.000108961
3.54182e-07
0.00010887
3.44354e-07
0.000108781
3.35413e-07
0.000108695
3.27596e-07
0.00010861
3.21142e-07
0.000108527
3.163e-07
0.000108444
3.13332e-07
0.000108362
3.12506e-07
0.000108279
3.14116e-07
0.000108195
3.18464e-07
0.000108109
3.25883e-07
0.000108019
3.36734e-07
0.000107926
3.51416e-07
0.000107828
3.70377e-07
0.000107723
3.94129e-07
0.00010761
4.23262e-07
0.000107488
4.5846e-07
0.000107355
5.0053e-07
0.000107209
5.50424e-07
0.000107047
6.09287e-07
0.000106867
6.7849e-07
0.000106666
7.597e-07
0.00010644
8.54948e-07
0.000106187
9.66731e-07
0.0001059
1.09814e-06
0.000105575
1.25302e-06
0.000105206
1.4362e-06
0.000104785
1.65379e-06
0.000104304
1.91357e-06
0.000103754
2.22551e-06
0.000103124
2.60246e-06
0.000102401
3.06104e-06
0.000101573
3.62275e-06
0.000100629
4.31519e-06
9.95605e-05
5.17321e-06
9.83687e-05
6.23926e-06
9.70742e-05
7.5613e-06
9.57328e-05
9.18475e-06
9.4459e-05
1.11318e-05
9.34528e-05
1.3357e-05
9.29876e-05
1.56582e-05
1.75335e-05
9.3183e-05
0.000122025
2.36537e-08
0.000121998
1.4138e-07
0.000121928
3.41101e-07
0.000121809
5.67937e-07
0.000121647
7.54932e-07
0.000121459
8.61594e-07
0.000121263
8.86866e-07
0.000121071
8.56743e-07
0.000120889
8.0351e-07
0.000120717
7.51312e-07
0.000120555
7.11939e-07
0.000120398
6.87454e-07
0.000120244
6.74842e-07
0.000120092
6.69732e-07
0.000119942
6.68385e-07
0.000119791
6.68307e-07
0.000119641
6.68127e-07
0.000119492
6.67228e-07
0.000119343
6.65433e-07
0.000119195
6.62749e-07
0.000119048
6.59247e-07
0.000118902
6.54992e-07
0.000118758
6.50024e-07
0.000118615
6.44348e-07
0.000118473
6.37951e-07
0.000118333
6.30804e-07
0.000118196
6.22873e-07
0.00011806
6.14126e-07
0.000117927
6.04543e-07
0.000117795
5.94124e-07
0.000117667
5.82893e-07
0.000117541
5.70897e-07
0.000117418
5.58215e-07
0.000117298
5.44954e-07
0.000117182
5.3125e-07
0.000117068
5.17265e-07
0.000116957
5.03193e-07
0.000116849
4.89246e-07
0.000116744
4.75658e-07
0.000116642
4.62679e-07
0.000116543
4.50577e-07
0.000116445
4.39636e-07
0.00011635
4.30148e-07
0.000116256
4.22418e-07
0.000116164
4.16763e-07
0.000116071
4.13512e-07
0.000115979
4.13011e-07
0.000115886
4.15621e-07
0.000115791
4.21729e-07
0.000115694
4.31748e-07
0.000115594
4.46131e-07
0.000115489
4.65376e-07
0.000115379
4.90039e-07
0.000115262
5.20753e-07
0.000115136
5.58242e-07
0.000115001
6.03342e-07
0.000114855
6.57033e-07
0.000114695
7.20468e-07
0.000114519
7.95015e-07
0.000114326
8.82304e-07
0.000114111
9.84295e-07
0.000113873
1.10336e-06
0.000113608
1.24236e-06
0.000113312
1.4048e-06
0.000112981
1.59498e-06
0.000112609
1.81817e-06
0.000112193
2.0809e-06
0.000111726
2.39127e-06
0.000111202
2.75932e-06
0.000110618
3.19753e-06
0.000109968
3.72129e-06
0.000109252
4.34943e-06
0.000108473
5.10449e-06
0.000107645
6.01244e-06
0.000106793
7.10107e-06
0.000105969
8.39568e-06
0.000105255
9.90956e-06
0.000104771
1.1626e-05
0.00010467
1.34678e-05
0.000105084
1.52543e-05
1.66625e-05
0.000105965
0.000130574
2.61914e-08
0.000130548
1.66917e-07
0.000130481
4.08466e-07
0.000130364
6.85674e-07
0.000130201
9.17485e-07
0.000130009
1.05355e-06
0.000129806
1.09077e-06
0.000129603
1.05925e-06
0.00012941
9.97579e-07
0.000129226
9.35236e-07
0.000129051
8.87119e-07
0.000128883
8.56372e-07
0.000128718
8.39819e-07
0.000128556
8.32441e-07
0.000128396
8.29829e-07
0.000128236
8.28977e-07
0.000128077
8.28188e-07
0.000127919
8.26682e-07
0.000127761
8.24193e-07
0.000127605
8.20701e-07
0.00012745
8.1627e-07
0.000127296
8.10966e-07
0.000127143
8.04824e-07
0.000126992
7.97853e-07
0.000126842
7.90033e-07
0.000126695
7.81328e-07
0.000126549
7.717e-07
0.000126405
7.61109e-07
0.000126264
7.49538e-07
0.000126125
7.36987e-07
0.000125989
7.23488e-07
0.000125855
7.09101e-07
0.000125724
6.93922e-07
0.000125596
6.78082e-07
0.000125471
6.61747e-07
0.000125348
6.4512e-07
0.000125229
6.2843e-07
0.000125113
6.11935e-07
0.000124999
5.95918e-07
0.000124888
5.80686e-07
0.000124779
5.66563e-07
0.000124672
5.53887e-07
0.000124567
5.43016e-07
0.000124463
5.34318e-07
0.00012436
5.28173e-07
0.000124257
5.24979e-07
0.000124154
5.25153e-07
0.000124049
5.29127e-07
0.000123943
5.37363e-07
0.000123833
5.50356e-07
0.000123721
5.68642e-07
0.000123603
5.92807e-07
0.00012348
6.23507e-07
0.000123349
6.61479e-07
0.00012321
7.07562e-07
0.000123061
7.6272e-07
0.000122901
8.2807e-07
0.000122727
9.04917e-07
0.000122538
9.94794e-07
0.000122332
1.09951e-06
0.000122106
1.22121e-06
0.000121858
1.36246e-06
0.000121585
1.52629e-06
0.000121285
1.71637e-06
0.000120954
1.93707e-06
0.00012059
2.19367e-06
0.00012019
2.49247e-06
0.000119751
2.84104e-06
0.000119273
3.24843e-06
0.000118757
3.72531e-06
0.000118205
4.28414e-06
0.000117627
4.93909e-06
0.000117037
5.7056e-06
0.000116462
6.59929e-06
0.00011594
7.63357e-06
0.000115532
8.81522e-06
0.000115316
1.01367e-05
0.000115388
1.15646e-05
0.000115843
1.30233e-05
0.000116729
1.438e-05
1.54428e-05
0.000117959
0.000139722
2.73607e-08
0.000139699
1.89279e-07
0.000139637
4.71302e-07
0.000139523
7.991e-07
0.000139363
1.078e-06
0.000139169
1.24725e-06
0.00013896
1.3006e-06
0.000138748
1.27119e-06
0.000138543
1.20334e-06
0.000138346
1.13184e-06
0.000138159
1.07502e-06
0.000137978
1.03749e-06
0.000137802
1.01626e-06
0.00013763
1.00587e-06
0.000137459
1.00135e-06
0.00013729
9.992e-07
0.000137122
9.97412e-07
0.000136955
9.94998e-07
0.000136789
9.9159e-07
0.000136624
9.87119e-07
0.000136461
9.81626e-07
0.000136298
9.75164e-07
0.000136138
9.67768e-07
0.000135979
9.59436e-07
0.000135821
9.50143e-07
0.000135666
9.3985e-07
0.000135512
9.28511e-07
0.000135361
9.16088e-07
0.000135212
9.02559e-07
0.000135065
8.87933e-07
0.000134921
8.72245e-07
0.000134779
8.55572e-07
0.00013464
8.38029e-07
0.000134504
8.19773e-07
0.00013437
8.00999e-07
0.000134239
7.81943e-07
0.000134111
7.62875e-07
0.000133986
7.44099e-07
0.000133863
7.25947e-07
0.000133742
7.08773e-07
0.000133623
6.92959e-07
0.000133506
6.789e-07
0.00013339
6.67012e-07
0.000133275
6.57723e-07
0.000133161
6.51477e-07
0.000133046
6.48736e-07
0.000132931
6.49976e-07
0.000132814
6.55704e-07
0.000132695
6.66447e-07
0.000132572
6.82771e-07
0.000132446
7.05283e-07
0.000132315
7.3465e-07
0.000132177
7.71604e-07
0.000132032
8.16966e-07
0.000131879
8.71663e-07
0.000131717
9.36746e-07
0.000131543
1.01343e-06
0.000131356
1.1031e-06
0.000131155
1.20738e-06
0.000130938
1.32816e-06
0.000130703
1.46763e-06
0.000130449
1.62837e-06
0.000130174
1.81339e-06
0.000129876
2.02622e-06
0.000129554
2.27096e-06
0.000129208
2.5524e-06
0.000128836
2.87609e-06
0.000128441
3.2484e-06
0.000128025
3.67654e-06
0.000127594
4.16852e-06
0.000127157
4.73299e-06
0.000126729
5.37884e-06
0.000126333
6.11439e-06
0.000125998
6.94613e-06
0.000125767
7.87645e-06
0.000125694
8.90035e-06
0.000125842
1.00006e-05
0.000126277
1.11415e-05
0.000127049
1.22628e-05
0.000128164
1.32761e-05
1.40727e-05
0.000129546
0.00014951
2.69276e-08
0.000149492
2.0757e-07
0.000149435
5.27848e-07
0.000149329
9.05683e-07
0.000149173
1.23364e-06
0.000148981
1.44016e-06
0.000148767
1.51451e-06
0.000148547
1.49153e-06
0.00014833
1.42047e-06
0.000148121
1.34131e-06
0.000147921
1.27607e-06
0.000147727
1.2313e-06
0.00014754
1.20459e-06
0.000147356
1.19034e-06
0.000147175
1.18313e-06
0.000146996
1.17907e-06
0.000146819
1.17579e-06
0.000146643
1.1721e-06
0.000146469
1.1675e-06
0.000146296
1.16184e-06
0.000146125
1.15512e-06
0.000145955
1.14737e-06
0.000145786
1.13862e-06
0.000145619
1.12885e-06
0.000145454
1.11804e-06
0.000145291
1.10613e-06
0.00014513
1.09308e-06
0.000144971
1.07885e-06
0.000144815
1.06342e-06
0.00014466
1.0468e-06
0.000144508
1.02904e-06
0.000144359
1.01024e-06
0.000144212
9.90519e-07
0.000144067
9.70065e-07
0.000143925
9.49103e-07
0.000143785
9.27904e-07
0.000143648
9.06774e-07
0.000143514
8.8606e-07
0.000143381
8.66138e-07
0.00014325
8.47414e-07
0.000143121
8.30316e-07
0.000142993
8.15296e-07
0.000142866
8.02821e-07
0.000142739
7.93374e-07
0.000142613
7.87459e-07
0.000142485
7.8559e-07
0.000142357
7.88308e-07
0.000142227
7.9617e-07
0.000142094
8.09766e-07
0.000141958
8.29717e-07
0.000141817
8.56689e-07
0.000141672
8.91404e-07
0.00014152
9.34651e-07
0.000141361
9.87305e-07
0.000141195
1.05034e-06
0.000141018
1.12485e-06
0.000140832
1.21207e-06
0.000140634
1.31343e-06
0.000140423
1.43053e-06
0.000140198
1.56522e-06
0.000139959
1.7196e-06
0.000139704
1.8961e-06
0.000139433
2.09747e-06
0.000139145
2.32683e-06
0.000138841
2.58772e-06
0.000138522
2.88408e-06
0.000138191
3.22027e-06
0.000137851
3.60103e-06
0.000137509
4.03134e-06
0.000137175
4.51628e-06
0.00013686
5.06067e-06
0.000136583
5.66854e-06
0.000136368
6.34241e-06
0.000136245
7.08211e-06
0.000136251
7.88324e-06
0.000136429
8.73511e-06
0.000136824
9.61832e-06
0.000137476
1.05022e-05
0.000138407
1.13434e-05
0.000139609
1.20867e-05
1.26716e-05
0.000141023
0.000159984
2.47377e-08
0.000159971
2.21162e-07
0.000159922
5.76736e-07
0.000159824
1.00334e-06
0.000159676
1.38193e-06
0.000159487
1.62983e-06
0.000159271
1.73049e-06
0.000159044
1.71889e-06
0.000158817
1.64823e-06
0.000158595
1.56337e-06
0.000158381
1.49031e-06
0.000158175
1.43798e-06
0.000157975
1.40503e-06
0.000157781
1.38601e-06
0.000157589
1.37529e-06
0.000157401
1.3686e-06
0.000157215
1.36327e-06
0.000157031
1.35787e-06
0.000156848
1.35174e-06
0.000156667
1.34464e-06
0.000156488
1.3365e-06
0.00015631
1.32732e-06
0.000156134
1.31711e-06
0.00015596
1.30583e-06
0.000155788
1.29344e-06
0.000155618
1.27991e-06
0.000155449
1.26516e-06
0.000155283
1.24917e-06
0.000155119
1.23192e-06
0.000154957
1.21343e-06
0.000154797
1.19376e-06
0.00015464
1.17302e-06
0.000154485
1.15135e-06
0.000154332
1.12898e-06
0.000154182
1.10615e-06
0.000154033
1.08315e-06
0.000153887
1.06034e-06
0.000153742
1.0381e-06
0.0001536
1.01684e-06
0.000153458
9.97019e-07
0.000153318
9.79104e-07
0.000153179
9.63594e-07
0.00015304
9.51002e-07
0.000152901
9.41864e-07
0.000152762
9.36727e-07
0.000152622
9.36156e-07
0.00015248
9.40734e-07
0.000152336
9.51068e-07
0.000152189
9.67786e-07
0.000152039
9.91552e-07
0.000151884
1.02307e-06
0.000151725
1.06309e-06
0.000151559
1.11243e-06
0.000151387
1.17197e-06
0.000151207
1.2427e-06
0.000151019
1.3257e-06
0.000150822
1.42217e-06
0.000150615
1.53347e-06
0.000150397
1.66111e-06
0.000150169
1.80676e-06
0.00014993
1.97233e-06
0.000149679
2.15989e-06
0.000149419
2.37177e-06
0.000149149
2.61047e-06
0.000148871
2.87873e-06
0.00014859
3.17943e-06
0.000148308
3.51554e-06
0.000148033
3.89001e-06
0.000147773
4.30562e-06
0.000147538
4.7647e-06
0.000147344
5.2688e-06
0.000147208
5.81826e-06
0.000147153
6.41155e-06
0.000147204
7.04455e-06
0.000147391
7.70965e-06
0.000147745
8.39471e-06
0.000148295
9.08221e-06
0.000149062
9.74858e-06
0.000150054
1.03645e-05
0.000151257
1.08967e-05
1.13121e-05
0.00015263
0.000171192
2.07645e-08
0.000171184
2.29768e-07
0.000171143
6.1721e-07
0.000171056
1.09071e-06
0.000170917
1.52097e-06
0.000170733
1.81413e-06
0.000170517
1.9465e-06
0.000170285
1.9516e-06
0.000170048
1.88542e-06
0.000169814
1.79729e-06
0.000169588
1.71734e-06
0.000169369
1.65737e-06
0.000169158
1.61752e-06
0.000168952
1.59288e-06
0.00016875
1.57778e-06
0.000168552
1.56771e-06
0.000168357
1.55973e-06
0.000168164
1.55214e-06
0.000167974
1.54413e-06
0.000167785
1.5353e-06
0.000167598
1.52554e-06
0.000167413
1.51478e-06
0.00016723
1.50298e-06
0.000167049
1.49012e-06
0.00016687
1.47612e-06
0.000166692
1.46095e-06
0.000166517
1.44454e-06
0.000166344
1.42686e-06
0.000166172
1.4079e-06
0.000166003
1.38769e-06
0.000165836
1.36631e-06
0.000165671
1.34387e-06
0.000165508
1.32056e-06
0.000165347
1.29659e-06
0.000165187
1.27225e-06
0.00016503
1.24786e-06
0.000164874
1.22381e-06
0.00016472
1.2005e-06
0.000164567
1.17839e-06
0.000164415
1.15796e-06
0.000164264
1.13973e-06
0.000164113
1.12423e-06
0.000163961
1.11201e-06
0.00016381
1.10365e-06
0.000163658
1.09972e-06
0.000163504
1.10083e-06
0.000163348
1.10759e-06
0.000163191
1.12064e-06
0.00016303
1.14063e-06
0.000162865
1.16824e-06
0.000162696
1.20419e-06
0.000162523
1.24922e-06
0.000162344
1.30415e-06
0.00016216
1.36983e-06
0.000161969
1.4472e-06
0.000161771
1.53727e-06
0.000161565
1.64115e-06
0.000161353
1.76004e-06
0.000161133
1.89525e-06
0.000160905
2.04822e-06
0.000160672
2.22048e-06
0.000160432
2.41368e-06
0.000160189
2.62956e-06
0.000159944
2.86989e-06
0.000159701
3.1365e-06
0.000159464
3.43113e-06
0.000159239
3.75537e-06
0.000159033
4.11052e-06
0.000158856
4.49742e-06
0.000158719
4.91622e-06
0.000158637
5.3661e-06
0.000158625
5.84494e-06
0.000158702
6.34895e-06
0.000158889
6.87226e-06
0.000159207
7.4065e-06
0.000159675
7.94051e-06
0.000160312
8.46016e-06
0.000161126
8.94854e-06
0.000162118
9.38665e-06
0.000163274
9.75484e-06
1.00351e-05
0.000164565
0.000183185
1.51081e-08
0.000183181
2.33497e-07
0.000183149
6.49191e-07
0.000183073
1.16729e-06
0.000182944
1.6497e-06
0.000182767
1.99149e-06
0.000182553
2.1607e-06
0.000182317
2.18783e-06
0.000182072
2.13044e-06
0.000181828
2.04183e-06
0.00018159
1.95631e-06
0.000181359
1.8889e-06
0.000181136
1.84171e-06
0.000180919
1.81069e-06
0.000180707
1.79042e-06
0.0001805
1.77626e-06
0.000180296
1.765e-06
0.000180095
1.75475e-06
0.000179897
1.74447e-06
0.000179701
1.73364e-06
0.000179507
1.72203e-06
0.000179315
1.70953e-06
0.000179124
1.69605e-06
0.000178936
1.68153e-06
0.00017875
1.66591e-06
0.000178566
1.64912e-06
0.000178383
1.63111e-06
0.000178203
1.61184e-06
0.000178025
1.59132e-06
0.000177848
1.56958e-06
0.000177673
1.54673e-06
0.000177501
1.52288e-06
0.000177329
1.49824e-06
0.00017716
1.47305e-06
0.000176992
1.44761e-06
0.000176825
1.42228e-06
0.00017666
1.39745e-06
0.000176495
1.37357e-06
0.000176332
1.35112e-06
0.000176168
1.33061e-06
0.000176005
1.31257e-06
0.000175842
1.29758e-06
0.000175679
1.2862e-06
0.000175514
1.27903e-06
0.000175349
1.27669e-06
0.000175182
1.27978e-06
0.000175012
1.28894e-06
0.00017484
1.30482e-06
0.000174666
1.32806e-06
0.000174488
1.35933e-06
0.000174306
1.39934e-06
0.00017412
1.44881e-06
0.000173929
1.50848e-06
0.000173734
1.57916e-06
0.000173534
1.66168e-06
0.000173328
1.75692e-06
0.000173118
1.86583e-06
0.000172904
1.98939e-06
0.000172685
2.12866e-06
0.000172464
2.28471e-06
0.000172241
2.45867e-06
0.000172019
2.65165e-06
0.000171799
2.86477e-06
0.000171585
3.09904e-06
0.000171382
3.35537e-06
0.000171194
3.63444e-06
0.000171029
3.93663e-06
0.000170893
4.2619e-06
0.000170797
4.60962e-06
0.00017075
4.97842e-06
0.000170766
5.36604e-06
0.000170857
5.76907e-06
0.000171039
6.18284e-06
0.000171326
6.6012e-06
0.000171731
7.01648e-06
0.000172268
7.4195e-06
0.000172944
7.79965e-06
0.000173762
8.14537e-06
0.00017472
8.4447e-06
0.000175803
8.68621e-06
8.86026e-06
0.000176993
0.000196017
7.96515e-09
0.000196018
2.32807e-07
0.000195994
6.73256e-07
0.000195928
1.23343e-06
0.00019581
1.76789e-06
0.00019564
2.16096e-06
0.00019543
2.37155e-06
0.000195192
2.42573e-06
0.000194942
2.38146e-06
0.000194689
2.29537e-06
0.00019444
2.20592e-06
0.000194198
2.13163e-06
0.000193963
2.07692e-06
0.000193736
2.03901e-06
0.000193515
2.01291e-06
0.000193298
1.99399e-06
0.000193086
1.97891e-06
0.000192877
1.96552e-06
0.000192671
1.9526e-06
0.000192467
1.93949e-06
0.000192266
1.92584e-06
0.000192067
1.91145e-06
0.00019187
1.8962e-06
0.000191675
1.87999e-06
0.000191482
1.86275e-06
0.000191291
1.84439e-06
0.000191101
1.82487e-06
0.000190914
1.80416e-06
0.000190728
1.78226e-06
0.000190544
1.75924e-06
0.000190362
1.73518e-06
0.000190181
1.71024e-06
0.000190002
1.68464e-06
0.000189824
1.65863e-06
0.000189647
1.63254e-06
0.00018947
1.60674e-06
0.000189295
1.58163e-06
0.00018912
1.55769e-06
0.000188945
1.5354e-06
0.000188771
1.5153e-06
0.000188596
1.49795e-06
0.00018842
1.48391e-06
0.000188244
1.47378e-06
0.000188066
1.46817e-06
0.000187887
1.46768e-06
0.000187707
1.47294e-06
0.000187524
1.48456e-06
0.000187339
1.50318e-06
0.000187151
1.52943e-06
0.00018696
1.56395e-06
0.000186766
1.60737e-06
0.000186569
1.66036e-06
0.000186369
1.72358e-06
0.000186165
1.79772e-06
0.000185958
1.88346e-06
0.000185749
1.98152e-06
0.000185538
2.09263e-06
0.000185326
2.2175e-06
0.000185113
2.35688e-06
0.000184903
2.51144e-06
0.000184696
2.68187e-06
0.000184495
2.86873e-06
0.000184304
3.07252e-06
0.000184126
3.29355e-06
0.000183966
3.53191e-06
0.000183829
3.78742e-06
0.000183723
4.05953e-06
0.000183655
4.34722e-06
0.000183632
4.64891e-06
0.000183665
4.96239e-06
0.000183763
5.2847e-06
0.000183937
5.61204e-06
0.000184196
5.93977e-06
0.000184552
6.26235e-06
0.000185012
6.57343e-06
0.000185582
6.86596e-06
0.000186265
7.13243e-06
0.000187062
7.36519e-06
0.000187966
7.5569e-06
0.000188967
7.70105e-06
7.79255e-06
0.000190051
0.000209748
-3.91475e-10
0.000209752
2.28396e-07
0.000209735
6.90451e-07
0.000209678
1.29017e-06
0.00020957
1.87609e-06
0.000209409
2.32228e-06
0.000209203
2.57793e-06
0.000208966
2.66359e-06
0.000208711
2.63654e-06
0.000208451
2.55607e-06
0.000208193
2.46459e-06
0.000207941
2.38432e-06
0.000207697
2.32226e-06
0.00020746
2.27718e-06
0.000207229
2.24477e-06
0.000207004
2.22059e-06
0.000206783
2.20119e-06
0.000206566
2.18426e-06
0.000206353
2.16838e-06
0.000206142
2.15274e-06
0.000205933
2.13687e-06
0.000205727
2.12049e-06
0.000205524
2.10342e-06
0.000205322
2.08552e-06
0.000205122
2.0667e-06
0.000204924
2.04687e-06
0.000204727
2.02598e-06
0.000204533
2.004e-06
0.00020434
1.98096e-06
0.000204148
1.95691e-06
0.000203958
1.93198e-06
0.000203768
1.90631e-06
0.00020358
1.88015e-06
0.000203393
1.85375e-06
0.000203206
1.82746e-06
0.00020302
1.80165e-06
0.000202834
1.77674e-06
0.000202649
1.75322e-06
0.000202463
1.73158e-06
0.000202276
1.71235e-06
0.000202089
1.6961e-06
0.000201901
1.6834e-06
0.000201712
1.67483e-06
0.000201522
1.671e-06
0.00020133
1.6725e-06
0.000201136
1.67993e-06
0.00020094
1.69389e-06
0.000200742
1.71496e-06
0.000200542
1.74374e-06
0.00020034
1.78078e-06
0.000200136
1.82666e-06
0.00019993
1.88193e-06
0.000199722
1.94714e-06
0.000199512
2.02282e-06
0.000199302
2.1095e-06
0.000199093
2.20766e-06
0.000198884
2.3178e-06
0.000198678
2.44034e-06
0.000198476
2.57566e-06
0.000198281
2.72409e-06
0.000198094
2.88583e-06
0.000197919
3.06099e-06
0.00019776
3.24948e-06
0.00019762
3.45103e-06
0.000197504
3.66512e-06
0.000197418
3.89092e-06
0.000197368
4.12724e-06
0.000197361
4.37249e-06
0.000197403
4.62463e-06
0.000197502
4.8811e-06
0.000197666
5.13883e-06
0.000197901
5.39421e-06
0.000198216
5.64313e-06
0.000198615
5.88104e-06
0.000199103
6.10303e-06
0.000199682
6.30399e-06
0.000200354
6.47883e-06
0.000201114
6.62265e-06
0.000201957
6.73108e-06
0.000202874
6.80051e-06
6.82837e-06
0.000203856
0.00022444
-9.69018e-09
0.000224447
2.21071e-07
0.000224436
7.02094e-07
0.000224387
1.33898e-06
0.000224288
1.97539e-06
0.000224135
2.47572e-06
0.000223934
2.77919e-06
0.000223698
2.9e-06
0.000223441
2.89382e-06
0.000223176
2.82199e-06
0.00022291
2.73059e-06
0.00022265
2.64551e-06
0.000222397
2.5766e-06
0.000222151
2.52438e-06
0.000221911
2.48543e-06
0.000221678
2.45564e-06
0.000221449
2.43157e-06
0.000221225
2.41078e-06
0.000221003
2.39168e-06
0.000220785
2.37332e-06
0.00022057
2.35511e-06
0.000220357
2.33667e-06
0.000220146
2.31777e-06
0.000219937
2.29823e-06
0.00021973
2.27792e-06
0.000219525
2.25676e-06
0.000219321
2.23469e-06
0.000219119
2.21168e-06
0.000218918
2.18777e-06
0.000218719
2.16302e-06
0.00021852
2.13755e-06
0.000218322
2.11153e-06
0.000218125
2.08521e-06
0.000217928
2.05886e-06
0.000217731
2.03281e-06
0.000217535
2.00745e-06
0.000217338
1.9832e-06
0.000217141
1.96054e-06
0.000216944
1.93996e-06
0.000216745
1.92198e-06
0.000216546
1.90715e-06
0.000216346
1.89604e-06
0.000216144
1.88921e-06
0.000215941
1.88723e-06
0.000215736
1.89067e-06
0.00021553
1.90008e-06
0.000215322
1.91601e-06
0.000215113
1.93899e-06
0.000214903
1.96953e-06
0.000214691
2.0081e-06
0.000214478
2.05517e-06
0.000214265
2.11117e-06
0.000214052
2.17649e-06
0.00021384
2.25151e-06
0.00021363
2.33653e-06
0.000213424
2.43184e-06
0.000213221
2.53765e-06
0.000213025
2.65411e-06
0.000212838
2.78127e-06
0.000212661
2.9191e-06
0.000212497
3.06741e-06
0.000212351
3.22588e-06
0.000212225
3.39402e-06
0.000212124
3.57111e-06
0.000212051
3.7562e-06
0.000212013
3.94806e-06
0.000212014
4.14518e-06
0.00021206
4.34571e-06
0.000212156
4.5475e-06
0.000212308
4.74803e-06
0.000212521
4.94448e-06
0.0002128
5.13373e-06
0.00021315
5.31244e-06
0.000213573
5.47708e-06
0.00021407
5.62407e-06
0.000214643
5.7499e-06
0.000215289
5.85122e-06
0.000216006
5.92505e-06
0.000216786
5.96887e-06
0.000217624
5.98077e-06
5.9596e-06
0.000218511
0.000240161
-1.9663e-08
0.00024017
2.11631e-07
0.000240163
7.09549e-07
0.00024012
1.38151e-06
0.000240029
2.06721e-06
0.000239883
2.62197e-06
0.000239687
2.97509e-06
0.000239454
3.13388e-06
0.000239196
3.1517e-06
0.000238928
3.09131e-06
0.000238657
3.00214e-06
0.00023839
2.91368e-06
0.000238129
2.8387e-06
0.000237875
2.77964e-06
0.000237627
2.73417e-06
0.000237386
2.69864e-06
0.00023715
2.66969e-06
0.000236918
2.64484e-06
0.000236689
2.62236e-06
0.000236464
2.60117e-06
0.000236242
2.58055e-06
0.000236022
2.56005e-06
0.000235804
2.53937e-06
0.000235588
2.51829e-06
0.000235374
2.49666e-06
0.000235161
2.47436e-06
0.00023495
2.45134e-06
0.000234739
2.42758e-06
0.00023453
2.40311e-06
0.000234322
2.37799e-06
0.000234115
2.35236e-06
0.000233908
2.32639e-06
0.000233701
2.30032e-06
0.000233494
2.27443e-06
0.000233287
2.24904e-06
0.00023308
2.22454e-06
0.000232872
2.20134e-06
0.000232663
2.1799e-06
0.000232454
2.16069e-06
0.000232244
2.14422e-06
0.000232032
2.13101e-06
0.00023182
2.1216e-06
0.000231606
2.1165e-06
0.000231391
2.11626e-06
0.000231174
2.12137e-06
0.000230957
2.13234e-06
0.000230738
2.14965e-06
0.000230519
2.17372e-06
0.0002303
2.20499e-06
0.000230081
2.24381e-06
0.000229862
2.29053e-06
0.000229645
2.34542e-06
0.00022943
2.40874e-06
0.000229219
2.48065e-06
0.000229012
2.56128e-06
0.000228812
2.65067e-06
0.000228619
2.74881e-06
0.000228437
2.85556e-06
0.000228266
2.9707e-06
0.000228111
3.09389e-06
0.000227973
3.22465e-06
0.000227856
3.36236e-06
0.000227763
3.50621e-06
0.000227699
3.65521e-06
0.000227667
3.80818e-06
0.000227671
3.96373e-06
0.000227716
4.12023e-06
0.000227806
4.27585e-06
0.000227945
4.42855e-06
0.000228137
4.57609e-06
0.000228385
4.71609e-06
0.000228693
4.84603e-06
0.000229062
4.96333e-06
0.000229494
5.06544e-06
0.000229988
5.14986e-06
0.000230543
5.21427e-06
0.000231158
5.2566e-06
0.000231827
5.27511e-06
0.000232547
5.26844e-06
0.000233312
5.23571e-06
5.17649e-06
0.000234114
0.000256982
-3.00939e-08
0.000256993
2.00786e-07
0.000256989
7.14087e-07
0.000256951
1.41938e-06
0.000256866
2.15303e-06
0.000256726
2.76195e-06
0.000256536
3.16572e-06
0.000256305
3.36451e-06
0.000256049
3.40884e-06
0.000255778
3.36238e-06
0.000255504