/*--------------------------------*- C++ -*----------------------------------*\
| =========                 |                                                 |
| \\      /  F ield         | OpenFOAM: The Open Source CFD Toolbox           |
|  \\    /   O peration     | Version:  5.x                                   |
|   \\  /    A nd           | Web:      www.OpenFOAM.org                      |
|    \\/     M anipulation  |                                                 |
\*---------------------------------------------------------------------------*/
FoamFile
{
    version     2.0;
    format      ascii;
    class       surfaceScalarField;
    location    "0.8";
    object      phi;
}
// * * * * * * * * * * * * * * * * * * * * * * * * * * * * * * * * * * * * * //

dimensions      [1 0 -1 0 0 0 0];

internalField   nonuniform List<scalar> 
23692
(
9.30864e-05
-6.84223e-09
9.30916e-05
-5.15997e-09
9.30851e-05
6.65878e-09
9.30575e-05
2.77392e-08
9.30037e-05
5.39169e-08
9.29244e-05
7.95152e-08
9.28251e-05
9.9619e-08
9.27137e-05
1.11699e-07
9.25982e-05
1.15889e-07
9.24846e-05
1.14136e-07
9.23761e-05
1.08998e-07
9.2274e-05
1.02696e-07
9.2178e-05
9.66905e-08
9.20872e-05
9.16537e-08
9.20004e-05
8.76962e-08
9.19167e-05
8.46262e-08
9.18357e-05
8.21522e-08
9.17569e-05
7.99973e-08
9.16803e-05
7.79539e-08
9.16059e-05
7.58891e-08
9.15338e-05
7.37326e-08
9.14641e-05
7.14465e-08
9.1397e-05
6.90275e-08
9.13325e-05
6.64752e-08
9.12709e-05
6.37982e-08
9.12123e-05
6.10082e-08
9.11567e-05
5.8113e-08
9.11043e-05
5.51216e-08
9.10551e-05
5.20435e-08
9.10092e-05
4.8887e-08
9.09667e-05
4.56633e-08
9.09277e-05
4.23846e-08
9.08921e-05
3.90699e-08
9.086e-05
3.57343e-08
9.08315e-05
3.24052e-08
9.08064e-05
2.91074e-08
9.07846e-05
2.58697e-08
9.07662e-05
2.27306e-08
9.07509e-05
1.9726e-08
9.07386e-05
1.69015e-08
9.07291e-05
1.43001e-08
9.0722e-05
1.19726e-08
9.0717e-05
9.97359e-09
9.07138e-05
8.35846e-09
9.07119e-05
7.18805e-09
9.07107e-05
6.52768e-09
9.07097e-05
6.44629e-09
9.07083e-05
7.0168e-09
9.07057e-05
8.32179e-09
9.0701e-05
1.04467e-08
9.06933e-05
1.34904e-08
9.06817e-05
1.75589e-08
9.06649e-05
2.27738e-08
9.06417e-05
2.92736e-08
9.06106e-05
3.72152e-08
9.057e-05
4.67851e-08
9.0518e-05
5.81985e-08
9.04526e-05
7.17127e-08
9.03712e-05
8.76357e-08
9.02712e-05
1.0634e-07
9.01492e-05
1.2828e-07
9.00016e-05
1.54018e-07
8.98237e-05
1.84254e-07
8.96102e-05
2.19868e-07
8.93546e-05
2.61989e-07
8.90489e-05
3.12067e-07
8.86832e-05
3.72007e-07
8.82452e-05
4.4434e-07
8.77191e-05
5.32486e-07
8.70842e-05
6.41149e-07
8.63136e-05
7.7692e-07
8.53706e-05
9.49221e-07
8.4205e-05
1.17179e-06
8.27461e-05
1.46508e-06
8.08921e-05
1.86017e-06
7.84932e-05
2.40503e-06
7.53246e-05
3.1746e-06
7.10431e-05
4.28751e-06
6.51038e-05
5.94522e-06
5.65819e-05
8.52778e-06
1.30479e-05
4.35399e-05
9.96068e-05
-1.42409e-08
9.96126e-05
-1.09549e-08
9.9606e-05
1.33223e-08
9.95771e-05
5.68223e-08
9.95203e-05
1.10927e-07
9.94361e-05
1.63917e-07
9.93304e-05
2.05609e-07
9.92118e-05
2.30746e-07
9.90885e-05
2.39567e-07
9.89671e-05
2.36076e-07
9.88511e-05
2.2555e-07
9.87418e-05
2.12588e-07
9.86391e-05
2.00199e-07
9.85418e-05
1.89792e-07
9.84488e-05
1.81606e-07
9.83593e-05
1.7525e-07
9.82725e-05
1.70122e-07
9.81881e-05
1.65656e-07
9.81061e-05
1.61426e-07
9.80264e-05
1.5716e-07
9.79492e-05
1.52702e-07
9.78745e-05
1.47989e-07
9.78026e-05
1.43001e-07
9.77335e-05
1.37744e-07
9.76674e-05
1.32234e-07
9.76045e-05
1.26491e-07
9.75447e-05
1.20534e-07
9.74883e-05
1.14383e-07
9.74354e-05
1.08054e-07
9.73859e-05
1.01568e-07
9.734e-05
9.49452e-08
9.72978e-05
8.82155e-08
9.72592e-05
8.14094e-08
9.72243e-05
7.45697e-08
9.71931e-05
6.77426e-08
9.71655e-05
6.09821e-08
9.71414e-05
5.43526e-08
9.71208e-05
4.79269e-08
9.71035e-05
4.17856e-08
9.70893e-05
3.60135e-08
9.7078e-05
3.07076e-08
9.70692e-05
2.59705e-08
9.70627e-05
2.1911e-08
9.70579e-05
1.86476e-08
9.70544e-05
1.63038e-08
9.70516e-05
1.50141e-08
9.7049e-05
1.49181e-08
9.70458e-05
1.61712e-08
9.70413e-05
1.8936e-08
9.70345e-05
2.33937e-08
9.70245e-05
2.97425e-08
9.70102e-05
3.82018e-08
9.69904e-05
4.90209e-08
9.69637e-05
6.24794e-08
9.69285e-05
7.89016e-08
9.68832e-05
9.86628e-08
9.68259e-05
1.22202e-07
9.67542e-05
1.50042e-07
9.66658e-05
1.82803e-07
9.65577e-05
2.21237e-07
9.64265e-05
2.6626e-07
9.62683e-05
3.18994e-07
9.60785e-05
3.80838e-07
9.58517e-05
4.53545e-07
9.55811e-05
5.39335e-07
9.52589e-05
6.41061e-07
9.48753e-05
7.62429e-07
9.44181e-05
9.08321e-07
9.38721e-05
1.08526e-06
9.3218e-05
1.30208e-06
9.24306e-05
1.57095e-06
9.14776e-05
1.90892e-06
9.0316e-05
2.34009e-06
8.88886e-05
2.89912e-06
8.71192e-05
3.63609e-06
8.49075e-05
4.62322e-06
8.21263e-05
5.96232e-06
7.86305e-05
7.78977e-06
7.4307e-05
1.0275e-05
6.92892e-05
1.35519e-05
1.72085e-05
6.51348e-05
0.000106584
-2.22423e-08
0.000106591
-1.76074e-08
0.000106584
1.9634e-08
0.000106555
8.66943e-08
0.000106495
1.70351e-07
0.000106407
2.52511e-07
0.000106296
3.17397e-07
0.00010617
3.56786e-07
0.000106039
3.70943e-07
0.00010591
3.65978e-07
0.000105786
3.50007e-07
0.000105669
3.30137e-07
0.000105559
3.11052e-07
0.000105455
2.94955e-07
0.000105355
2.82245e-07
0.000105259
2.7235e-07
0.000105166
2.64354e-07
0.000105076
2.57392e-07
0.000104988
2.5081e-07
0.000104903
2.44185e-07
0.00010482
2.37282e-07
0.00010474
2.29997e-07
0.000104663
2.22299e-07
0.000104589
2.14192e-07
0.000104518
2.05706e-07
0.00010445
1.96868e-07
0.000104386
1.8771e-07
0.000104325
1.78259e-07
0.000104268
1.6854e-07
0.000104214
1.58587e-07
0.000104164
1.48434e-07
0.000104118
1.38121e-07
0.000104076
1.27702e-07
0.000104037
1.17239e-07
0.000104003
1.06803e-07
0.000103972
9.64805e-08
0.000103945
8.63699e-08
0.000103921
7.6583e-08
0.0001039
6.7242e-08
0.000103883
5.84836e-08
0.000103869
5.04517e-08
0.000103857
4.33057e-08
0.000103848
3.72148e-08
0.00010384
3.23596e-08
0.000103833
2.89324e-08
0.000103827
2.71356e-08
0.000103821
2.71892e-08
0.000103814
2.93263e-08
0.000103806
3.37986e-08
0.000103795
4.08845e-08
0.000103781
5.0884e-08
0.000103762
6.41359e-08
0.000103736
8.10147e-08
0.000103704
1.01949e-07
0.000103662
1.2743e-07
0.00010361
1.58022e-07
0.000103545
1.94389e-07
0.000103465
2.37314e-07
0.000103367
2.87727e-07
0.000103249
3.46747e-07
0.000103107
4.1573e-07
0.000102937
4.96334e-07
0.000102734
5.90605e-07
0.000102494
7.0109e-07
0.00010221
8.30992e-07
0.000101873
9.84377e-07
0.000101477
1.16647e-06
0.000101008
1.38404e-06
0.000100455
1.64597e-06
9.98001e-05
1.96406e-06
9.90241e-05
2.3541e-06
9.81027e-05
2.83745e-06
9.70068e-05
3.44313e-06
9.57025e-05
4.21055e-06
9.41529e-05
5.1927e-06
9.23244e-05
6.45864e-06
9.02016e-05
8.09209e-06
8.78197e-05
1.01785e-05
8.53381e-05
1.27635e-05
8.31758e-05
1.5721e-05
1.83832e-05
8.20077e-05
0.00011405
-3.09359e-08
0.000114057
-2.53487e-08
0.000114052
2.51065e-08
0.000114022
1.16588e-07
0.000113962
2.31215e-07
0.00011387
3.44275e-07
0.000113754
4.34082e-07
0.000113622
4.89182e-07
0.000113484
5.09716e-07
0.000113346
5.03864e-07
0.000113214
4.8265e-07
0.000113089
4.55801e-07
0.000112972
4.29781e-07
0.00011286
4.07684e-07
0.000112753
3.90138e-07
0.00011265
3.76405e-07
0.000112551
3.65278e-07
0.000112454
3.55591e-07
0.00011236
3.46457e-07
0.000112269
3.37296e-07
0.00011218
3.27789e-07
0.000112094
3.17781e-07
0.000112012
3.07229e-07
0.000111932
2.96145e-07
0.000111856
2.84555e-07
0.000111783
2.725e-07
0.000111714
2.60023e-07
0.000111649
2.4716e-07
0.000111587
2.3395e-07
0.000111529
2.20433e-07
0.000111474
2.06657e-07
0.000111424
1.92683e-07
0.000111377
1.78579e-07
0.000111334
1.64433e-07
0.000111296
1.50344e-07
0.000111261
1.36429e-07
0.000111229
1.22823e-07
0.000111201
1.09678e-07
0.000111177
9.71627e-08
0.000111156
8.54613e-08
0.000111137
7.4774e-08
0.000111121
6.53155e-08
0.000111107
5.7318e-08
0.000111095
5.10246e-08
0.000111083
4.66986e-08
0.000111072
4.46177e-08
0.000111061
4.50767e-08
0.000111049
4.83935e-08
0.000111035
5.49108e-08
0.000111018
6.50001e-08
0.000110997
7.90721e-08
0.00011097
9.75763e-08
0.000110938
1.21018e-07
0.000110897
1.49971e-07
0.000110847
1.85086e-07
0.000110786
2.27115e-07
0.000110711
2.76933e-07
0.00011062
3.3557e-07
0.000110511
4.04241e-07
0.000110381
4.84401e-07
0.000110227
5.77798e-07
0.000110045
6.86553e-07
0.00010983
8.13262e-07
0.000109577
9.61119e-07
0.000109282
1.13409e-06
0.000108937
1.33715e-06
0.000108535
1.57655e-06
0.000108066
1.86026e-06
0.000107522
2.19847e-06
0.000106889
2.60429e-06
0.000106156
3.09467e-06
0.00010531
3.69153e-06
0.000104338
4.42302e-06
0.000103231
5.32475e-06
0.000101991
6.44024e-06
0.000100638
7.81895e-06
9.92291e-05
9.50839e-06
9.78816e-05
1.15334e-05
9.68017e-05
1.38507e-05
9.62728e-05
1.62572e-05
1.82402e-05
9.64229e-05
0.000122038
-4.04178e-08
0.000122048
-3.4475e-08
0.000122044
2.91223e-08
0.000122015
1.45533e-07
0.000121954
2.92256e-07
0.000121861
4.37838e-07
0.000121741
5.54413e-07
0.000121604
6.26992e-07
0.000121458
6.55342e-07
0.000121313
6.49593e-07
0.000121173
6.23663e-07
0.00012104
5.8998e-07
0.000120913
5.56902e-07
0.000120794
5.28528e-07
0.000120679
5.05801e-07
0.000120569
4.87887e-07
0.000120462
4.73305e-07
0.000120359
4.60608e-07
0.000120259
4.48677e-07
0.000120161
4.36771e-07
0.000120066
4.24474e-07
0.000119975
4.11587e-07
0.000119887
3.98043e-07
0.000119802
3.83847e-07
0.00011972
3.69039e-07
0.000119642
3.53667e-07
0.000119567
3.37779e-07
0.000119497
3.21424e-07
0.00011943
3.04649e-07
0.000119367
2.87512e-07
0.000119307
2.70073e-07
0.000119252
2.52407e-07
0.0001192
2.34608e-07
0.000119153
2.16784e-07
0.000119109
1.99066e-07
0.000119069
1.81601e-07
0.000119033
1.64567e-07
0.000119
1.48153e-07
0.000118971
1.32577e-07
0.000118944
1.18071e-07
0.00011892
1.04895e-07
0.000118898
9.33183e-08
0.000118879
8.36357e-08
0.00011886
7.61605e-08
0.000118843
7.12222e-08
0.000118825
6.91736e-08
0.000118807
7.03889e-08
0.000118787
7.52688e-08
0.000118765
8.42444e-08
0.00011874
9.77845e-08
0.000118711
1.16398e-07
0.000118675
1.40651e-07
0.000118633
1.71173e-07
0.000118582
2.08668e-07
0.000118521
2.5394e-07
0.000118449
3.07911e-07
0.000118362
3.71646e-07
0.000118259
4.46388e-07
0.000118138
5.33598e-07
0.000117996
6.35006e-07
0.000117829
7.52672e-07
0.000117635
8.8907e-07
0.00011741
1.04719e-06
0.000117148
1.23066e-06
0.000116847
1.4439e-06
0.0001165
1.69237e-06
0.000116102
1.98275e-06
0.000115647
2.32335e-06
0.00011513
2.72446e-06
0.000114543
3.19881e-06
0.000113884
3.76213e-06
0.00011315
4.43363e-06
0.000112345
5.23634e-06
0.000111481
6.19683e-06
0.000110586
7.34365e-06
0.00010971
8.70306e-06
0.000108936
1.02895e-05
0.00010839
1.20875e-05
0.000108228
1.40204e-05
0.000108588
1.59054e-05
1.7412e-05
0.000109424
0.000130587
-5.07853e-08
0.000130598
-4.53136e-08
0.000130596
3.09796e-08
0.000130569
1.72385e-07
0.00013051
3.51961e-07
0.000130417
5.31512e-07
0.000130295
6.76793e-07
0.000130153
7.68949e-07
0.000130002
8.07013e-07
0.000129849
8.02821e-07
0.000129701
7.73094e-07
0.000129559
7.3299e-07
0.000129424
6.92879e-07
0.000129295
6.58003e-07
0.000129173
6.29733e-07
0.000129055
6.07232e-07
0.000128941
5.88809e-07
0.00012883
5.72754e-07
0.000128723
5.57725e-07
0.000128619
5.42823e-07
0.000128518
5.27528e-07
0.000128421
5.11584e-07
0.000128326
4.94901e-07
0.000128236
4.77474e-07
0.000128149
4.59344e-07
0.000128065
4.40565e-07
0.000127985
4.21196e-07
0.000127909
4.01296e-07
0.000127837
3.80927e-07
0.000127768
3.60153e-07
0.000127704
3.39054e-07
0.000127643
3.17724e-07
0.000127586
2.96276e-07
0.000127533
2.74848e-07
0.000127484
2.53597e-07
0.000127439
2.32709e-07
0.000127397
2.12393e-07
0.000127358
1.92889e-07
0.000127322
1.74457e-07
0.000127289
1.57386e-07
0.000127259
1.41982e-07
0.00012723
1.28583e-07
0.000127204
1.17541e-07
0.000127178
1.09236e-07
0.000127152
1.04067e-07
0.000127126
1.0246e-07
0.0001271
1.04866e-07
0.000127071
1.11764e-07
0.000127039
1.23674e-07
0.000127004
1.41153e-07
0.000126964
1.64808e-07
0.000126918
1.95306e-07
0.000126864
2.33387e-07
0.000126801
2.79879e-07
0.000126728
3.35714e-07
0.000126642
4.01955e-07
0.000126543
4.79821e-07
0.000126427
5.70724e-07
0.000126293
6.76304e-07
0.000126139
7.9848e-07
0.000125961
9.39518e-07
0.000125757
1.10209e-06
0.000125523
1.28939e-06
0.000125258
1.50519e-06
0.000124957
1.75403e-06
0.000124616
2.04135e-06
0.000124235
2.37364e-06
0.000123808
2.75868e-06
0.000123336
3.20574e-06
0.000122818
3.72576e-06
0.000122257
4.33149e-06
0.000121662
5.03742e-06
0.000121048
5.85938e-06
0.00012044
6.81341e-06
0.000119879
7.9134e-06
0.000119424
9.16666e-06
0.000119155
1.05662e-05
0.000119172
1.20789e-05
0.000119572
1.36289e-05
0.000120405
1.50813e-05
1.62398e-05
0.000121585
0.000139734
-6.21482e-08
0.000139747
-5.82137e-08
0.000139748
2.99195e-08
0.000139725
1.9588e-07
0.000139669
4.08622e-07
0.000139577
6.23361e-07
0.000139455
7.99352e-07
0.000139311
9.13492e-07
0.000139155
9.63649e-07
0.000138995
9.62981e-07
0.000138838
9.30815e-07
0.000138687
8.8502e-07
0.000138543
8.38081e-07
0.000138406
7.96541e-07
0.000138275
7.62366e-07
0.000138148
7.34829e-07
0.000138027
7.12108e-07
0.000137909
6.92281e-07
0.000137795
6.738e-07
0.000137684
6.55605e-07
0.000137577
6.3707e-07
0.000137474
6.17873e-07
0.000137373
5.97893e-07
0.000137277
5.77112e-07
0.000137184
5.55564e-07
0.000137095
5.33311e-07
0.000137009
5.10416e-07
0.000136928
4.86951e-07
0.00013685
4.62987e-07
0.000136776
4.38605e-07
0.000136706
4.13902e-07
0.00013664
3.88989e-07
0.000136577
3.64006e-07
0.000136518
3.39114e-07
0.000136463
3.14502e-07
0.000136411
2.90391e-07
0.000136363
2.67032e-07
0.000136318
2.44705e-07
0.000136275
2.23719e-07
0.000136235
2.04411e-07
0.000136197
1.87147e-07
0.00013616
1.72316e-07
0.000136125
1.60333e-07
0.00013609
1.51643e-07
0.000136055
1.46711e-07
0.00013602
1.46031e-07
0.000135983
1.50127e-07
0.000135943
1.59554e-07
0.000135901
1.74909e-07
0.000135854
1.96828e-07
0.000135801
2.26007e-07
0.000135742
2.632e-07
0.000135675
3.09239e-07
0.000135599
3.65046e-07
0.000135512
4.31656e-07
0.000135413
5.10233e-07
0.0001353
6.02102e-07
0.000135172
7.08776e-07
0.000135025
8.31991e-07
0.000134859
9.73757e-07
0.000134672
1.1364e-06
0.000134461
1.32262e-06
0.000134224
1.53557e-06
0.00013396
1.77891e-06
0.000133667
2.05691e-06
0.000133343
2.37452e-06
0.000132989
2.73746e-06
0.000132605
3.1523e-06
0.000132194
3.62647e-06
0.000131761
4.16819e-06
0.000131315
4.78638e-06
0.000130872
5.49016e-06
0.000130452
6.28814e-06
0.000130088
7.18706e-06
0.000129821
8.1896e-06
0.000129706
9.29099e-06
0.000129807
1.04741e-05
0.000130192
1.17033e-05
0.000130912
1.29176e-05
0.000131975
1.40273e-05
1.49207e-05
0.000133303
0.000149522
-7.46065e-08
0.000149537
-7.35098e-08
0.000149542
2.51889e-08
0.000149524
2.14749e-07
0.000149472
4.60483e-07
0.000149385
7.11344e-07
0.000149264
9.2004e-07
0.000149119
1.05886e-06
0.00014896
1.12393e-06
0.000148794
1.12926e-06
0.000148629
1.09647e-06
0.000148469
1.04606e-06
0.000148316
9.92716e-07
0.000148169
9.44464e-07
0.000148029
9.04038e-07
0.000147894
8.70985e-07
0.000147765
8.43456e-07
0.00014764
8.19382e-07
0.000147519
7.97033e-07
0.000147401
7.75206e-07
0.000147288
7.53158e-07
0.000147178
7.30497e-07
0.000147072
7.07055e-07
0.000146969
6.82794e-07
0.000146871
6.57745e-07
0.000146776
6.31964e-07
0.000146685
6.05524e-07
0.000146598
5.78503e-07
0.000146514
5.50986e-07
0.000146434
5.2307e-07
0.000146359
4.94866e-07
0.000146286
4.66512e-07
0.000146218
4.38168e-07
0.000146153
4.10021e-07
0.000146091
3.82298e-07
0.000146033
3.5525e-07
0.000145977
3.29169e-07
0.000145924
3.04376e-07
0.000145874
2.81227e-07
0.000145825
2.60106e-07
0.000145779
2.41433e-07
0.000145733
2.2565e-07
0.000145688
2.13233e-07
0.000145643
2.0468e-07
0.000145598
2.0052e-07
0.000145551
2.01311e-07
0.000145503
2.07638e-07
0.000145451
2.20126e-07
0.000145395
2.39434e-07
0.000145335
2.66271e-07
0.000145269
3.01396e-07
0.000145196
3.4563e-07
0.000145115
3.99875e-07
0.000145025
4.65115e-07
0.000144924
5.42445e-07
0.000144811
6.33081e-07
0.000144684
7.38391e-07
0.000144543
8.5991e-07
0.000144386
9.99381e-07
0.000144211
1.15877e-06
0.000144017
1.34033e-06
0.000143803
1.5466e-06
0.000143569
1.78046e-06
0.000143313
2.04518e-06
0.000143035
2.34445e-06
0.000142738
2.68236e-06
0.000142422
3.06343e-06
0.000142092
3.49255e-06
0.000141753
3.97491e-06
0.000141416
4.51575e-06
0.000141092
5.12008e-06
0.0001408
5.79212e-06
0.000140564
6.53457e-06
0.000140414
7.34741e-06
0.000140387
8.22635e-06
0.000140527
9.1608e-06
0.000140879
1.01313e-05
0.000141485
1.11069e-05
0.000142369
1.20437e-05
0.00014352
1.28855e-05
1.35703e-05
0.00014488
0.000159996
-8.82385e-08
0.000160014
-9.14864e-08
0.000160023
1.61334e-08
0.00016001
2.27847e-07
0.000159965
5.05916e-07
0.000159883
7.93488e-07
0.000159767
1.0368e-06
0.000159623
1.20315e-06
0.000159461
1.28634e-06
0.000159291
1.30059e-06
0.000159119
1.26943e-06
0.00015895
1.21584e-06
0.000158787
1.15678e-06
0.000158631
1.1019e-06
0.000158482
1.05494e-06
0.000158339
1.01589e-06
0.000158201
9.83016e-07
0.000158068
9.54175e-07
0.00015794
9.2751e-07
0.000157816
9.01672e-07
0.000157696
8.75812e-07
0.00015758
8.49456e-07
0.000157468
8.22385e-07
0.00015736
7.94529e-07
0.000157255
7.65905e-07
0.000157155
7.36566e-07
0.000157058
7.06588e-07
0.000156965
6.76056e-07
0.000156876
6.45068e-07
0.00015679
6.13737e-07
0.000156708
5.82194e-07
0.00015663
5.50596e-07
0.000156555
5.19129e-07
0.000156483
4.88012e-07
0.000156415
4.57498e-07
0.000156349
4.27878e-07
0.000156286
3.99476e-07
0.000156225
3.72657e-07
0.000156166
3.47819e-07
0.000156108
3.25393e-07
0.000156052
3.05843e-07
0.000155996
2.89665e-07
0.00015594
2.77382e-07
0.000155884
2.69547e-07
0.000155827
2.6674e-07
0.000155768
2.69572e-07
0.000155706
2.78684e-07
0.000155641
2.94748e-07
0.000155572
3.18479e-07
0.000155497
3.5063e-07
0.000155417
3.92007e-07
0.000155329
4.43473e-07
0.000155233
5.05959e-07
0.000155128
5.80476e-07
0.000155013
6.6813e-07
0.000154886
7.70131e-07
0.000154747
8.87818e-07
0.000154595
1.02267e-06
0.000154429
1.17632e-06
0.000154248
1.35058e-06
0.000154052
1.54747e-06
0.00015384
1.76921e-06
0.000153613
2.01822e-06
0.000153372
2.29717e-06
0.000153119
2.60889e-06
0.000152855
2.9564e-06
0.000152587
3.34281e-06
0.000152319
3.77121e-06
0.00015206
4.24449e-06
0.000151822
4.76513e-06
0.000151618
5.3348e-06
0.000151467
5.95396e-06
0.000151391
6.62118e-06
0.000151416
7.33241e-06
0.000151573
8.08004e-06
0.000151893
8.85194e-06
0.000152404
9.63043e-06
0.000153129
1.03917e-05
0.000154077
1.11059e-05
0.000155234
1.17391e-05
1.22573e-05
0.000156557
0.000171203
-1.03093e-07
0.000171224
-1.12338e-07
0.000171238
2.27102e-09
0.000171232
2.34295e-07
0.000171194
5.43586e-07
0.00017112
8.68098e-07
0.00017101
1.14776e-06
0.000170869
1.34454e-06
0.000170707
1.44926e-06
0.000170532
1.47572e-06
0.000170354
1.44882e-06
0.000170177
1.39383e-06
0.000170005
1.32998e-06
0.00016984
1.26874e-06
0.000169681
1.21507e-06
0.000169529
1.16959e-06
0.000169383
1.13084e-06
0.000169243
1.09671e-06
0.000169108
1.06526e-06
0.000168977
1.03502e-06
0.000168851
1.00504e-06
0.000168729
9.74755e-07
0.000168611
9.43888e-07
0.000168497
9.12334e-07
0.000168386
8.80082e-07
0.00016828
8.47181e-07
0.000168178
8.13705e-07
0.000168079
7.79747e-07
0.000167984
7.45416e-07
0.000167892
7.10843e-07
0.000167804
6.76176e-07
0.000167719
6.41596e-07
0.000167637
6.07314e-07
0.000167558
5.73577e-07
0.000167482
5.40667e-07
0.000167408
5.08911e-07
0.000167336
4.78667e-07
0.000167267
4.50335e-07
0.000167198
4.24355e-07
0.000167131
4.01197e-07
0.000167064
3.81366e-07
0.000166997
3.65401e-07
0.00016693
3.53867e-07
0.000166861
3.47358e-07
0.000166791
3.46499e-07
0.000166718
3.51936e-07
0.000166643
3.6435e-07
0.000166563
3.8445e-07
0.000166479
4.12978e-07
0.000166389
4.50714e-07
0.000166293
4.98478e-07
0.000166191
5.57142e-07
0.00016608
6.27633e-07
0.00016596
7.10938e-07
0.000165832
8.08122e-07
0.000165693
9.20327e-07
0.000165543
1.04879e-06
0.000165382
1.19484e-06
0.00016521
1.35992e-06
0.000165027
1.54557e-06
0.000164832
1.75345e-06
0.000164628
1.98533e-06
0.000164414
2.24303e-06
0.000164195
2.52847e-06
0.000163972
2.84354e-06
0.00016375
3.1901e-06
0.000163534
3.56983e-06
0.000163333
3.98412e-06
0.000163155
4.43391e-06
0.000163012
4.91941e-06
0.000162919
5.43988e-06
0.000162891
5.99326e-06
0.000162948
6.57577e-06
0.00016311
7.18155e-06
0.000163399
7.8022e-06
0.000163836
8.42645e-06
0.000164437
9.04001e-06
0.000165214
9.6257e-06
0.000166167
1.01641e-05
0.000167282
1.06352e-05
1.10203e-05
0.00016853
0.000183195
-1.19187e-07
0.000183219
-1.36136e-07
0.000183238
-1.66174e-08
0.000183239
2.33591e-07
0.00018321
5.72646e-07
0.000183145
9.33959e-07
0.000183042
1.25141e-06
0.000182905
1.48139e-06
0.000182744
1.61113e-06
0.000182568
1.65323e-06
0.000182384
1.6335e-06
0.0001822
1.57917e-06
0.00018202
1.51173e-06
0.000181845
1.44462e-06
0.000181678
1.3842e-06
0.000181517
1.33197e-06
0.000181363
1.28688e-06
0.000181215
1.24697e-06
0.000181073
1.21028e-06
0.000180936
1.17526e-06
0.000180803
1.14086e-06
0.000180675
1.10642e-06
0.000180551
1.07162e-06
0.000180431
1.03628e-06
0.000180315
1.00038e-06
0.000180202
9.63951e-07
0.000180094
9.27062e-07
0.000179989
8.8981e-07
0.000179888
8.52319e-07
0.00017979
8.1473e-07
0.000179695
7.77216e-07
0.000179603
7.39978e-07
0.000179514
7.03253e-07
0.000179427
6.67313e-07
0.000179343
6.32473e-07
0.00017926
5.99083e-07
0.000179179
5.67539e-07
0.0001791
5.38272e-07
0.000179021
5.11752e-07
0.000178943
4.88483e-07
0.000178864
4.69007e-07
0.000178785
4.5389e-07
0.000178705
4.4373e-07
0.000178623
4.39153e-07
0.000178539
4.40806e-07
0.000178452
4.49364e-07
0.000178361
4.65524e-07
0.000178267
4.90009e-07
0.000178167
5.23566e-07
0.000178062
5.66971e-07
0.000177951
6.21032e-07
0.000177833
6.86589e-07
0.000177708
7.6452e-07
0.000177575
8.55747e-07
0.000177433
9.61235e-07
0.000177284
1.082e-06
0.000177125
1.2191e-06
0.000176959
1.37365e-06
0.000176784
1.54681e-06
0.000176602
1.73978e-06
0.000176414
1.95376e-06
0.000176222
2.18998e-06
0.000176028
2.44962e-06
0.000175835
2.73379e-06
0.000175647
3.04346e-06
0.000175471
3.37937e-06
0.000175311
3.74197e-06
0.000175176
4.13126e-06
0.000175076
4.54664e-06
0.000175021
4.98678e-06
0.000175023
5.44941e-06
0.000175098
5.93113e-06
0.000175258
6.42722e-06
0.000175521
6.93151e-06
0.000175899
7.43622e-06
0.000176405
7.93201e-06
0.000177049
8.40812e-06
0.000177834
8.85269e-06
0.000178756
9.25345e-06
0.000179804
9.59862e-06
9.87817e-06
0.000180958
0.000196027
-1.36487e-07
0.000196054
-1.62815e-07
0.000196078
-4.04891e-08
0.000196086
2.25684e-07
0.000196066
5.92808e-07
0.00019601
9.90454e-07
0.000195915
1.34678e-06
0.000195785
1.61244e-06
0.000195626
1.77048e-06
0.000195449
1.83169e-06
0.000195261
1.82214e-06
0.000195071
1.77073e-06
0.000194883
1.70115e-06
0.0001947
1.6289e-06
0.000194525
1.56191e-06
0.000194356
1.50275e-06
0.000194194
1.45098e-06
0.000194039
1.40487e-06
0.000193889
1.36254e-06
0.000193745
1.32241e-06
0.000193606
1.28332e-06
0.000193471
1.24456e-06
0.000193341
1.2057e-06
0.000193215
1.16655e-06
0.000193093
1.12702e-06
0.000192975
1.08714e-06
0.00019286
1.04698e-06
0.000192749
1.00662e-06
0.000192641
9.6621e-07
0.000192536
9.25899e-07
0.000192434
8.8588e-07
0.000192334
8.46374e-07
0.000192237
8.07642e-07
0.000192142
7.69983e-07
0.000192048
7.33733e-07
0.000191956
6.99273e-07
0.000191866
6.67021e-07
0.000191775
6.37437e-07
0.000191685
6.11014e-07
0.000191595
5.88281e-07
0.000191504
5.69801e-07
0.000191412
5.56162e-07
0.000191318
5.4798e-07
0.000191222
5.45893e-07
0.000191123
5.50559e-07
0.00019102
5.62656e-07
0.000190914
5.8288e-07
0.000190804
6.1194e-07
0.000190689
6.50563e-07
0.000190568
6.99492e-07
0.000190442
7.59483e-07
0.000190309
8.31311e-07
0.00019017
9.15764e-07
0.000190025
1.01365e-06
0.000189873
1.12578e-06
0.000189715
1.25299e-06
0.000189551
1.39612e-06
0.000189382
1.556e-06
0.000189208
1.73345e-06
0.000189032
1.92927e-06
0.000188854
2.14418e-06
0.000188679
2.37886e-06
0.000188508
2.63382e-06
0.000188345
2.90944e-06
0.000188196
3.20585e-06
0.000188066
3.52289e-06
0.000187961
3.86e-06
0.000187889
4.21619e-06
0.000187859
4.58987e-06
0.00018788
4.97878e-06
0.000187963
5.37994e-06
0.000188118
5.78949e-06
0.000188355
6.20269e-06
0.000188686
6.61391e-06
0.000189118
7.01665e-06
0.000189659
7.40369e-06
0.000190313
7.76731e-06
0.000191078
8.0996e-06
0.000191952
8.39291e-06
0.000192922
8.64043e-06
8.83684e-06
0.000193976
0.000209757
-1.54926e-07
0.000209787
-1.92188e-07
0.000209816
-6.90219e-08
0.000209831
2.10961e-07
0.00020982
6.04375e-07
0.000209773
1.03762e-06
0.000209687
1.43351e-06
0.000209563
1.73689e-06
0.000209408
1.92618e-06
0.000209231
2.00973e-06
0.000209041
2.01334e-06
0.000208846
1.96723e-06
0.000208652
1.89715e-06
0.000208462
1.82069e-06
0.000208278
1.74754e-06
0.000208101
1.68149e-06
0.000207932
1.62285e-06
0.000207769
1.57028e-06
0.000207613
1.52203e-06
0.000207462
1.47652e-06
0.000207316
1.43256e-06
0.000207175
1.38935e-06
0.000207038
1.34639e-06
0.000206906
1.30343e-06
0.000206778
1.26037e-06
0.000206653
1.21719e-06
0.000206531
1.17394e-06
0.000206413
1.13074e-06
0.000206298
1.08772e-06
0.000206185
1.04504e-06
0.000206075
1.00293e-06
0.000205967
9.61608e-07
0.000205861
9.21369e-07
0.000205757
8.82527e-07
0.000205653
8.45443e-07
0.000205551
8.10516e-07
0.000205449
7.78184e-07
0.000205347
7.48923e-07
0.000205244
7.23243e-07
0.000205141
7.01686e-07
0.000205036
6.84823e-07
0.00020493
6.7325e-07
0.000204821
6.67583e-07
0.00020471
6.68456e-07
0.000204596
6.7652e-07
0.000204478
6.92433e-07
0.000204356
7.16864e-07
0.000204229
7.50486e-07
0.000204099
7.93975e-07
0.000203963
8.48008e-07
0.000203822
9.1326e-07
0.000203676
9.90401e-07
0.000203525
1.08009e-06
0.000203369
1.18298e-06
0.000203208
1.2997e-06
0.000203044
1.43086e-06
0.000202877
1.57703e-06
0.000202708
1.73873e-06
0.000202539
1.91643e-06
0.000202371
2.1105e-06
0.000202208
2.32122e-06
0.000202053
2.54871e-06
0.000201908
2.79292e-06
0.000201778
3.0536e-06
0.000201667
3.33021e-06
0.000201582
3.62192e-06
0.000201529
3.92751e-06
0.000201514
4.24534e-06
0.000201545
4.57332e-06
0.000201629
4.90881e-06
0.000201774
5.24865e-06
0.000201988
5.58914e-06
0.000202279
5.92604e-06
0.000202652
6.25464e-06
0.000203112
6.56985e-06
0.000203663
6.86638e-06
0.000204305
7.13887e-06
0.000205036
7.38218e-06
0.000205851
7.59164e-06
0.000206741
7.76337e-06
7.89462e-06
0.000207696
0.00022445
-1.744e-07
0.000224482
-2.23964e-07
0.000224514
-1.01686e-07
0.000224536
1.90149e-07
0.000224532
6.08131e-07
0.000224494
1.07604e-06
0.000224417
1.51179e-06
0.0002243
1.85441e-06
0.00022415
2.07741e-06
0.000223974
2.18616e-06
0.000223783
2.20573e-06
0.000223584
2.16729e-06
0.000223385
2.09847e-06
0.000223188
2.01897e-06
0.000222998
1.94031e-06
0.000222814
1.86764e-06
0.000222637
1.80215e-06
0.000222467
1.74301e-06
0.000222304
1.6887e-06
0.000222146
1.63769e-06
0.000221993
1.58877e-06
0.000221846
1.54107e-06
0.000221703
1.49405e-06
0.000221563
1.44738e-06
0.000221428
1.40094e-06
0.000221296
1.35467e-06
0.000221167
1.30863e-06
0.000221041
1.26291e-06
0.000220918
1.21766e-06
0.000220797
1.17305e-06
0.000220678
1.12932e-06
0.000220561
1.0867e-06
0.000220445
1.04551e-06
0.00022033
1.00607e-06
0.000220215
9.68766e-07
0.000220101
9.34001e-07
0.000219987
9.02227e-07
0.000219872
8.73926e-07
0.000219756
8.49614e-07
0.000219638
8.29832e-07
0.000219519
8.15147e-07
0.000219397
8.06143e-07
0.000219273
8.03423e-07
0.000219146
8.07598e-07
0.000219016
8.19286e-07
0.000218882
8.39106e-07
0.000218744
8.67676e-07
0.000218601
9.05604e-07
0.000218455
9.53491e-07
0.000218305
1.01192e-06
0.00021815
1.08144e-06
0.000217992
1.1626e-06
0.00021783
1.25591e-06
0.000217666
1.36181e-06
0.000217499
1.48074e-06
0.000217331
1.61305e-06
0.000217164
1.75904e-06
0.000216998
1.91892e-06
0.000216837
2.09279e-06
0.000216681
2.28066e-06
0.000216535
2.48237e-06
0.000216401
2.6976e-06
0.000216283
2.92584e-06
0.000216185
3.16637e-06
0.000216113
3.41818e-06
0.000216069
3.68e-06
0.000216062
3.95026e-06
0.000216095
4.22701e-06
0.000216175
4.50801e-06
0.000216309
4.79064e-06
0.0002165
5.07194e-06
0.000216755
5.34865e-06
0.000217079
5.61726e-06
0.000217474
5.87407e-06
0.000217944
6.11529e-06
0.000218487
6.33717e-06
0.000219105
6.53614e-06
0.000219792
6.70891e-06
0.000220545
6.85271e-06
0.000221357
6.96538e-06
7.04561e-06
0.000222221
0.000240171
-1.9479e-07
0.000240205
-2.57792e-07
0.000240241
-1.37825e-07
0.000240267
1.64217e-07
0.000240271
6.05197e-07
0.000240241
1.10677e-06
0.000240171
1.58231e-06
0.000240061
1.96517e-06
0.000239915
2.22375e-06
0.000239743
2.3601e-06
0.000239552
2.39812e-06
0.000239351
2.36961e-06
0.000239147
2.30387e-06
0.000238945
2.22266e-06
0.000238748
2.13934e-06
0.000238558
2.06056e-06
0.000238374
1.98849e-06
0.000238198
1.92289e-06
0.000238027
1.86255e-06
0.000237862
1.80605e-06
0.000237703
1.7522e-06
0.000237548
1.7001e-06
0.000237398
1.64914e-06
0.000237251
1.59897e-06
0.000237108
1.54939e-06
0.000236968
1.50035e-06
0.000236831
1.45187e-06
0.000236697
1.40405e-06
0.000236564
1.35703e-06
0.000236434
1.311e-06
0.000236305
1.26618e-06
0.000236177
1.22284e-06
0.00023605
1.18129e-06
0.000235923
1.14188e-06
0.000235796
1.10498e-06
0.000235669
1.07101e-06
0.000235541
1.04042e-06
0.000235412
1.01368e-06
0.000235282
9.91309e-07
0.000235149
9.73828e-07
0.000235014
9.61784e-07
0.000234876
9.55736e-07
0.000234736
9.56251e-07
0.000234592
9.63898e-07
0.000234446
9.79242e-07
0.000234295
1.00284e-06
0.000234141
1.03524e-06
0.000233984
1.07695e-06
0.000233823
1.12849e-06
0.000233659
1.19029e-06
0.000233492
1.26281e-06
0.000233323
1.3464e-06
0.000233152
1.4414e-06
0.000232981
1.54807e-06
0.00023281
1.66661e-06
0.000232642
1.79713e-06
0.000232477
1.93966e-06
0.000232317
2.09411e-06
0.000232165
2.26028e-06
0.000232024
2.43784e-06
0.000231896
2.62629e-06
0.000231784
2.825e-06
0.000231693
3.0331e-06
0.000231626
3.24957e-06
0.000231587
3.47314e-06
0.00023158
3.70233e-06
0.000231611
3.93541e-06
0.000231684
4.17045e-06
0.000231802
4.40526e-06
0.000231972
4.63748e-06
0.000232195
4.86454e-06
0.000232476
5.08377e-06
0.000232816
5.2924e-06
0.000233218
5.48767e-06
0.000233682
5.66687e-06
0.000234207
5.82742e-06
0.000234792
5.96701e-06
0.000235433
6.08362e-06
0.000236125
6.17564e-06
0.000236863
6.24195e-06
6.28201e-06
0.000237642
0.000256993
-2.15955e-07
0.000257028
-2.93294e-07
0.000257068
-1.76731e-07
0.000257098
1.34213e-07
0.000257107
5.9686e-07
0.000257083
1.13108e-06
0.00025702
1.64606e-06
0.000256916
2.06966e-06