/*--------------------------------*- C++ -*----------------------------------*\
| =========                 |                                                 |
| \\      /  F ield         | OpenFOAM: The Open Source CFD Toolbox           |
|  \\    /   O peration     | Version:  5.x                                   |
|   \\  /    A nd           | Web:      www.OpenFOAM.org                      |
|    \\/     M anipulation  |                                                 |
\*---------------------------------------------------------------------------*/
FoamFile
{
    version     2.0;
    format      ascii;
    class       volVectorField;
    location    "0.6";
    object      U;
}
// * * * * * * * * * * * * * * * * * * * * * * * * * * * * * * * * * * * * * //

dimensions      [0 1 -1 0 0 0 0];

internalField   nonuniform List<vector> 
12013
(
(0.1 5.49303e-07 0)
(0.099988 2.82726e-06 0)
(0.0999422 6.7211e-06 0)
(0.0998516 1.1209e-05 0)
(0.0997187 1.49943e-05 0)
(0.099558 1.72514e-05 0)
(0.0993874 1.79186e-05 0)
(0.0992206 1.74889e-05 0)
(0.0990645 1.66061e-05 0)
(0.0989201 1.57662e-05 0)
(0.098785 1.52162e-05 0)
(0.098656 1.50013e-05 0)
(0.09853 1.50554e-05 0)
(0.0984054 1.52813e-05 0)
(0.098281 1.55944e-05 0)
(0.0981566 1.59373e-05 0)
(0.0980322 1.62775e-05 0)
(0.0979078 1.66003e-05 0)
(0.0977838 1.69013e-05 0)
(0.0976603 1.71805e-05 0)
(0.0975377 1.74389e-05 0)
(0.0974159 1.76777e-05 0)
(0.0972953 1.78972e-05 0)
(0.097176 1.80957e-05 0)
(0.0970581 1.8272e-05 0)
(0.0969419 1.84238e-05 0)
(0.0968274 1.85482e-05 0)
(0.096715 1.86425e-05 0)
(0.0966047 1.87041e-05 0)
(0.0964967 1.87305e-05 0)
(0.0963913 1.8721e-05 0)
(0.0962887 1.86746e-05 0)
(0.0961889 1.85917e-05 0)
(0.0960922 1.84746e-05 0)
(0.0959987 1.83263e-05 0)
(0.0959084 1.81505e-05 0)
(0.0958215 1.79544e-05 0)
(0.095738 1.77442e-05 0)
(0.0956578 1.75294e-05 0)
(0.0955809 1.73198e-05 0)
(0.0955071 1.71275e-05 0)
(0.0954363 1.69657e-05 0)
(0.0953682 1.68496e-05 0)
(0.0953025 1.67954e-05 0)
(0.0952389 1.68216e-05 0)
(0.095177 1.69485e-05 0)
(0.0951162 1.71988e-05 0)
(0.0950561 1.75973e-05 0)
(0.0949959 1.81723e-05 0)
(0.0949349 1.89552e-05 0)
(0.0948724 1.99819e-05 0)
(0.0948074 2.1294e-05 0)
(0.094739 2.29385e-05 0)
(0.094666 2.49706e-05 0)
(0.0945871 2.74562e-05 0)
(0.0945008 3.04718e-05 0)
(0.0944056 3.41101e-05 0)
(0.0942996 3.84825e-05 0)
(0.0941806 4.37245e-05 0)
(0.0940461 5.00027e-05 0)
(0.0938932 5.7522e-05 0)
(0.0937184 6.65403e-05 0)
(0.0935177 7.73813e-05 0)
(0.0932863 9.04576e-05 0)
(0.0930181 0.000106302 0)
(0.0927059 0.00012561 0)
(0.0923408 0.000149302 0)
(0.0919115 0.000178615 0)
(0.0914036 0.000215241 0)
(0.0907987 0.000261535 0)
(0.0900725 0.000320842 0)
(0.0891925 0.000398011 0)
(0.0881143 0.00050023 0)
(0.0867763 0.000638399 0)
(0.0850908 0.000829448 0)
(0.0829312 0.00110028 0)
(0.0801094 0.00149468 0)
(0.0763283 0.00208757 0)
(0.0711251 0.00303004 0)
(0.0639528 0.00474421 0)
(0.0558822 0.00913073 0)
(0.100001 1.64467e-06 0)
(0.0999888 8.61287e-06 0)
(0.099944 2.05419e-05 0)
(0.0998545 3.43089e-05 0)
(0.0997228 4.5936e-05 0)
(0.0995632 5.28847e-05 0)
(0.0993932 5.49586e-05 0)
(0.0992268 5.36633e-05 0)
(0.0990708 5.09716e-05 0)
(0.0989264 4.84027e-05 0)
(0.0987912 4.6718e-05 0)
(0.0986621 4.60567e-05 0)
(0.0985361 4.62187e-05 0)
(0.0984115 4.69072e-05 0)
(0.0982872 4.78633e-05 0)
(0.0981628 4.89115e-05 0)
(0.0980385 4.99523e-05 0)
(0.0979143 5.09408e-05 0)
(0.0977904 5.18633e-05 0)
(0.0976671 5.27191e-05 0)
(0.0975446 5.35123e-05 0)
(0.097423 5.42457e-05 0)
(0.0973025 5.49198e-05 0)
(0.0971834 5.55309e-05 0)
(0.0970656 5.60742e-05 0)
(0.0969494 5.65428e-05 0)
(0.0968351 5.6928e-05 0)
(0.0967226 5.72212e-05 0)
(0.0966123 5.74146e-05 0)
(0.0965044 5.75017e-05 0)
(0.0963989 5.74789e-05 0)
(0.0962961 5.73443e-05 0)
(0.0961962 5.70993e-05 0)
(0.0960993 5.67492e-05 0)
(0.0960055 5.63038e-05 0)
(0.0959149 5.57771e-05 0)
(0.0958276 5.51873e-05 0)
(0.0957436 5.45562e-05 0)
(0.0956628 5.39113e-05 0)
(0.0955852 5.32841e-05 0)
(0.0955108 5.27106e-05 0)
(0.0954392 5.22318e-05 0)
(0.0953702 5.18934e-05 0)
(0.0953036 5.17466e-05 0)
(0.095239 5.18475e-05 0)
(0.095176 5.22577e-05 0)
(0.095114 5.30461e-05 0)
(0.0950526 5.42901e-05 0)
(0.0949911 5.60754e-05 0)
(0.0949288 5.84988e-05 0)
(0.0948649 6.16696e-05 0)
(0.0947985 6.57135e-05 0)
(0.0947286 7.0776e-05 0)
(0.094654 7.70252e-05 0)
(0.0945736 8.46599e-05 0)
(0.0944859 9.39152e-05 0)
(0.0943893 0.000105072 0)
(0.0942819 0.00011847 0)
(0.0941617 0.000134518 0)
(0.0940263 0.000153721 0)
(0.0938727 0.0001767 0)
(0.0936978 0.000204231 0)
(0.0934975 0.00023729 0)
(0.0932673 0.000277116 0)
(0.0930015 0.000325302 0)
(0.0926933 0.00038392 0)
(0.0923343 0.0004557 0)
(0.0919142 0.000544294 0)
(0.0914201 0.000654655 0)
(0.0908353 0.000793627 0)
(0.0901389 0.000970821 0)
(0.0893031 0.00119999 0)
(0.0882918 0.00150115 0)
(0.087057 0.00190401 0)
(0.0855343 0.00245326 0)
(0.0836389 0.00321685 0)
(0.0812603 0.00429783 0)
(0.0782535 0.00585038 0)
(0.0744575 0.00810045 0)
(0.0699271 0.0113094 0)
(0.0659686 0.0153346 0)
(0.100001 2.69096e-06 0)
(0.0999899 1.45744e-05 0)
(0.0999469 3.49821e-05 0)
(0.0998599 5.8607e-05 0)
(0.0997311 7.86317e-05 0)
(0.0995739 9.06783e-05 0)
(0.0994058 9.43719e-05 0)
(0.0992404 9.22635e-05 0)
(0.0990848 8.7721e-05 0)
(0.0989403 8.33501e-05 0)
(0.0988049 8.04669e-05 0)
(0.0986755 7.93205e-05 0)
(0.0985494 7.95791e-05 0)
(0.0984247 8.07396e-05 0)
(0.0983005 8.23622e-05 0)
(0.0981764 8.41463e-05 0)
(0.0980523 8.59229e-05 0)
(0.0979285 8.76139e-05 0)
(0.097805 8.91948e-05 0)
(0.0976821 9.06641e-05 0)
(0.0975599 9.20282e-05 0)
(0.0974388 9.32919e-05 0)
(0.0973187 9.4455e-05 0)
(0.0971999 9.55128e-05 0)
(0.0970824 9.64563e-05 0)
(0.0969666 9.72732e-05 0)
(0.0968525 9.79493e-05 0)
(0.0967402 9.84703e-05 0)
(0.0966301 9.88223e-05 0)
(0.0965222 9.89956e-05 0)
(0.0964167 9.89829e-05 0)
(0.0963139 9.87816e-05 0)
(0.0962138 9.83948e-05 0)
(0.0961166 9.78315e-05 0)
(0.0960224 9.71085e-05 0)
(0.0959313 9.62501e-05 0)
(0.0958433 9.52866e-05 0)
(0.0957586 9.4257e-05 0)
(0.0956769 9.32077e-05 0)
(0.0955983 9.21933e-05 0)
(0.0955226 9.12751e-05 0)
(0.0954496 9.05234e-05 0)
(0.0953791 9.00164e-05 0)
(0.0953108 8.98422e-05 0)
(0.0952444 9.00961e-05 0)
(0.0951794 9.0884e-05 0)
(0.0951153 9.23244e-05 0)
(0.0950516 9.45487e-05 0)
(0.0949877 9.77034e-05 0)
(0.0949229 0.000101954 0)
(0.0948563 0.000107486 0)
(0.0947872 0.000114515 0)
(0.0947144 0.000123286 0)
(0.0946371 0.000134086 0)
(0.0945538 0.000147251 0)
(0.0944633 0.000163179 0)
(0.0943639 0.000182344 0)
(0.094254 0.000205314 0)
(0.0941316 0.000232779 0)
(0.0939942 0.000265583 0)
(0.0938393 0.000304761 0)
(0.0936638 0.000351599 0)
(0.093464 0.000407708 0)
(0.0932357 0.000475125 0)
(0.0929739 0.000556448 0)
(0.0926723 0.000655028 0)
(0.0923239 0.000775241 0)
(0.0919196 0.000922871 0)
(0.0914488 0.00110566 0)
(0.0908983 0.0013341 0)
(0.0902519 0.00162264 0)
(0.0894896 0.00199138 0)
(0.0885874 0.00246861 0)
(0.0875164 0.00309444 0)
(0.0862439 0.00392572 0)
(0.0847362 0.00504205 0)
(0.0829675 0.00655054 0)
(0.0809365 0.00858301 0)
(0.0787089 0.0112707 0)
(0.0765496 0.0146222 0)
(0.0751644 0.0180331 0)
(0.100001 3.64553e-06 0)
(0.0999912 2.05764e-05 0)
(0.099951 4.97957e-05 0)
(0.099868 8.37859e-05 0)
(0.0997438 0.000112774 0)
(0.0995909 0.000130413 0)
(0.0994259 0.000136072 0)
(0.0992623 0.000133334 0)
(0.0991074 0.000126995 0)
(0.0989628 0.000120802 0)
(0.098827 0.00011667 0)
(0.0986972 0.00011499 0)
(0.0985709 0.000115312 0)
(0.0984462 0.000116929 0)
(0.0983222 0.000119219 0)
(0.0981984 0.000121753 0)
(0.0980748 0.000124288 0)
(0.0979516 0.00012671 0)
(0.0978287 0.000128981 0)
(0.0977065 0.000131099 0)
(0.0975851 0.000133069 0)
(0.0974647 0.000134899 0)
(0.0973453 0.000136589 0)
(0.0972271 0.000138131 0)
(0.0971104 0.000139512 0)
(0.0969951 0.000140715 0)
(0.0968815 0.000141721 0)
(0.0967698 0.000142508 0)
(0.0966601 0.000143058 0)
(0.0965525 0.000143356 0)
(0.0964472 0.000143394 0)
(0.0963445 0.000143167 0)
(0.0962443 0.000142681 0)
(0.0961469 0.000141949 0)
(0.0960524 0.000140996 0)
(0.0959608 0.000139856 0)
(0.0958721 0.000138574 0)
(0.0957864 0.000137205 0)
(0.0957036 0.000135818 0)
(0.0956237 0.000134489 0)
(0.0955465 0.000133309 0)
(0.0954718 0.000132377 0)
(0.0953993 0.000131806 0)
(0.0953288 0.000131723 0)
(0.09526 0.000132264 0)
(0.0951923 0.000133581 0)
(0.0951254 0.000135845 0)
(0.0950587 0.000139243 0)
(0.0949916 0.000143985 0)
(0.0949234 0.000150307 0)
(0.0948533 0.000158474 0)
(0.0947805 0.000168792 0)
(0.0947041 0.000181611 0)
(0.094623 0.000197334 0)
(0.094536 0.000216439 0)
(0.0944419 0.000239485 0)
(0.0943391 0.000267136 0)
(0.0942261 0.000300189 0)
(0.0941009 0.000339606 0)
(0.0939615 0.000386553 0)
(0.0938054 0.000442459 0)
(0.0936298 0.000509088 0)
(0.0934317 0.00058863 0)
(0.0932072 0.000683832 0)
(0.092952 0.000798162 0)
(0.0926613 0.000936046 0)
(0.0923291 0.00110318 0)
(0.0919487 0.00130696 0)
(0.0915123 0.0015571 0)
(0.0910108 0.00186644 0)
(0.0904341 0.00225211 0)
(0.0897713 0.0027371 0)
(0.0890114 0.00335225 0)
(0.0881452 0.00413872 0)
(0.0871682 0.0051504 0)
(0.0860878 0.00645487 0)
(0.084934 0.008129 0)
(0.0837761 0.0102409 0)
(0.0827466 0.0128027 0)
(0.0820677 0.0156551 0)
(0.0820148 0.018215 0)
(0.100001 4.46556e-06 0)
(0.0999929 2.64428e-05 0)
(0.0999562 6.46555e-05 0)
(0.0998789 0.000109413 0)
(0.0997612 0.000147927 0)
(0.0996143 0.000171757 0)
(0.0994539 0.00017989 0)
(0.0992929 0.00017687 0)
(0.099139 0.000168916 0)
(0.0989944 0.000160951 0)
(0.0988582 0.000155542 0)
(0.0987279 0.000153269 0)
(0.0986012 0.00015359 0)
(0.0984766 0.000155617 0)
(0.0983529 0.000158547 0)
(0.0982297 0.000161821 0)
(0.0981069 0.000165118 0)
(0.0979845 0.000168286 0)
(0.0978627 0.00017127 0)
(0.0977415 0.000174062 0)
(0.0976212 0.000176671 0)
(0.0975018 0.000179101 0)
(0.0973835 0.000181354 0)
(0.0972664 0.000183417 0)
(0.0971507 0.000185275 0)
(0.0970364 0.000186906 0)
(0.0969237 0.000188284 0)
(0.0968128 0.000189383 0)
(0.0967039 0.00019018 0)
(0.0965969 0.000190655 0)
(0.0964922 0.000190797 0)
(0.0963898 0.000190604 0)
(0.0962899 0.000190082 0)
(0.0961925 0.00018925 0)
(0.0960978 0.000188142 0)
(0.0960057 0.000186802 0)
(0.0959165 0.00018529 0)
(0.0958299 0.000183681 0)
(0.095746 0.000182062 0)
(0.0956647 0.000180537 0)
(0.0955858 0.000179224 0)
(0.0955091 0.000178254 0)
(0.0954344 0.000177776 0)
(0.0953615 0.000177955 0)
(0.0952899 0.000178972 0)
(0.0952192 0.000181026 0)
(0.0951491 0.00018434 0)
(0.0950789 0.000189161 0)
(0.095008 0.000195761 0)
(0.0949359 0.000204448 0)
(0.0948618 0.000215569 0)
(0.0947849 0.000229519 0)
(0.0947043 0.00024675 0)
(0.094619 0.000267786 0)
(0.0945279 0.000293236 0)
(0.0944299 0.000323817 0)
(0.0943236 0.000360376 0)
(0.0942074 0.000403923 0)
(0.0940798 0.000455667 0)
(0.0939388 0.000517069 0)
(0.0937825 0.000589904 0)
(0.0936084 0.000676343 0)
(0.0934139 0.000779057 0)
(0.093196 0.000901355 0)
(0.0929515 0.00104736 0)
(0.0926766 0.00122226 0)
(0.0923673 0.00143258 0)
(0.0920192 0.00168664 0)
(0.0916277 0.00199506 0)
(0.0911884 0.00237144 0)
(0.0906973 0.00283325 0)
(0.0901519 0.00340282 0)
(0.0895528 0.00410846 0)
(0.0889059 0.0049852 0)
(0.0882263 0.00607465 0)
(0.0875441 0.00742205 0)
(0.0869118 0.00906734 0)
(0.0864119 0.0110245 0)
(0.0861601 0.013241 0)
(0.0862895 0.0155303 0)
(0.0868779 0.0174856 0)
(0.100001 5.09648e-06 0)
(0.0999948 3.19693e-05 0)
(0.0999626 7.91754e-05 0)
(0.0998922 0.000134967 0)
(0.0997828 0.000183552 0)
(0.0996438 0.000214279 0)
(0.0994893 0.000225579 0)
(0.0993319 0.000222818 0)
(0.0991796 0.00021358 0)
(0.0990352 0.000203979 0)
(0.0988985 0.000197296 0)
(0.0987677 0.000194358 0)
(0.0986408 0.000194589 0)
(0.0985162 0.000196941 0)
(0.098393 0.000200447 0)
(0.0982706 0.000204422 0)
(0.0981489 0.000208464 0)
(0.0980277 0.000212375 0)
(0.0979072 0.000216082 0)
(0.0977875 0.000219568 0)
(0.0976686 0.000222838 0)
(0.0975508 0.000225898 0)
(0.097434 0.000228745 0)
(0.0973184 0.000231367 0)
(0.0972041 0.000233742 0)
(0.0970912 0.000235843 0)
(0.0969799 0.000237641 0)
(0.0968703 0.000239103 0)
(0.0967624 0.000240203 0)
(0.0966565 0.000240917 0)
(0.0965527 0.000241234 0)
(0.096451 0.000241151 0)
(0.0963516 0.000240678 0)
(0.0962545 0.00023984 0)
(0.0961599 0.000238679 0)
(0.0960677 0.000237252 0)
(0.095978 0.000235635 0)
(0.0958907 0.000233921 0)
(0.0958058 0.00023222 0)
(0.0957231 0.000230661 0)
(0.0956426 0.00022939 0)
(0.095564 0.000228574 0)
(0.095487 0.000228396 0)
(0.0954115 0.00022906 0)
(0.095337 0.000230793 0)
(0.0952632 0.000233842 0)
(0.0951896 0.000238483 0)
(0.0951157 0.00024502 0)
(0.095041 0.00025379 0)
(0.0949648 0.000265171 0)
(0.0948865 0.000279589 0)
(0.0948054 0.000297527 0)
(0.0947205 0.000319535 0)
(0.094631 0.000346249 0)
(0.094536 0.000378403 0)
(0.0944343 0.000416856 0)
(0.0943248 0.00046262 0)
(0.0942062 0.000516889 0)
(0.094077 0.000581084 0)
(0.0939358 0.000656906 0)
(0.0937808 0.000746404 0)
(0.0936103 0.000852052 0)
(0.0934223 0.000976858 0)
(0.0932145 0.00112449 0)
(0.092985 0.00129944 0)
(0.0927313 0.00150725 0)
(0.0924514 0.00175473 0)
(0.0921433 0.00205031 0)
(0.0918056 0.00240441 0)
(0.091438 0.00282987 0)
(0.091042 0.00334242 0)
(0.0906215 0.00396106 0)
(0.0901853 0.0047082 0)
(0.0897484 0.00560923 0)
(0.0893353 0.00669062 0)
(0.088983 0.00797565 0)
(0.0887445 0.00947551 0)
(0.0886883 0.0111735 0)
(0.0888927 0.0130009 0)
(0.0894231 0.0148062 0)
(0.0902814 0.0163381 0)
(0.100002 5.479e-06 0)
(0.0999969 3.69407e-05 0)
(0.0999697 9.29388e-05 0)
(0.0999075 0.000159874 0)
(0.0998079 0.000219038 0)
(0.0996783 0.000257465 0)
(0.0995312 0.000272812 0)
(0.0993784 0.000271055 0)
(0.0992283 0.00026103 0)
(0.0990844 0.000250035 0)
(0.0989475 0.000242121 0)
(0.0988163 0.000238448 0)
(0.0986892 0.000238469 0)
(0.0985649 0.000241027 0)
(0.0984424 0.00024501 0)
(0.0983211 0.000249614 0)
(0.0982007 0.000254356 0)
(0.0980811 0.000258988 0)
(0.0979624 0.000263412 0)
(0.0978445 0.000267598 0)
(0.0977275 0.000271546 0)
(0.0976115 0.000275258 0)
(0.0974967 0.000278728 0)
(0.097383 0.00028194 0)
(0.0972706 0.00028487 0)
(0.0971596 0.000287486 0)
(0.09705 0.000289752 0)
(0.0969421 0.000291635 0)
(0.0968359 0.000293101 0)
(0.0967314 0.000294129 0)
(0.0966288 0.000294703 0)
(0.0965283 0.000294823 0)
(0.0964297 0.000294503 0)
(0.0963333 0.000293777 0)
(0.0962391 0.000292694 0)
(0.096147 0.000291326 0)
(0.0960571 0.000289763 0)
(0.0959694 0.000288118 0)
(0.0958836 0.000286524 0)
(0.0957998 0.000285135 0)
(0.0957178 0.000284129 0)
(0.0956373 0.000283703 0)
(0.0955582 0.000284078 0)
(0.0954802 0.000285498 0)
(0.0954029 0.000288232 0)
(0.0953259 0.000292577 0)
(0.095249 0.000298858 0)
(0.0951715 0.000307437 0)
(0.0950929 0.000318712 0)
(0.0950128 0.000333131 0)
(0.0949305 0.000351192 0)
(0.0948453 0.000373458 0)
(0.0947564 0.000400571 0)
(0.0946632 0.000433264 0)
(0.0945647 0.000472382 0)
(0.0944601 0.000518905 0)
(0.0943483 0.000573975 0)
(0.0942284 0.000638933 0)
(0.0940992 0.000715358 0)
(0.0939595 0.000805119 0)
(0.0938082 0.000910437 0)
(0.0936439 0.00103396 0)
(0.0934655 0.00117884 0)
(0.0932717 0.00134889 0)
(0.0930616 0.00154863 0)
(0.0928342 0.00178351 0)
(0.0925892 0.00206008 0)
(0.092327 0.00238614 0)
(0.0920489 0.00277094 0)
(0.0917578 0.00322538 0)
(0.0914589 0.00376207 0)
(0.0911605 0.00439521 0)
(0.0908755 0.00514013 0)
(0.0906224 0.00601216 0)
(0.0904271 0.00702436 0)
(0.090324 0.00818356 0)
(0.0903555 0.00948382 0)
(0.0905701 0.010897 0)
(0.091013 0.0123609 0)
(0.0917104 0.0137698 0)
(0.0926426 0.0149762 0)
(0.100002 5.55775e-06 0)
(0.099999 4.11528e-05 0)
(0.0999773 0.000105543 0)
(0.099924 0.000183561 0)
(0.0998353 0.000253749 0)
(0.0997163 0.000300749 0)
(0.0995777 0.00032119 0)
(0.0994307 0.000321381 0)
(0.0992835 0.000311236 0)
(0.0991407 0.000299204 0)
(0.0990039 0.00029016 0)
(0.0988726 0.000285689 0)
(0.0987457 0.000285364 0)
(0.0986219 0.000287975 0)
(0.0985003 0.000292302 0)
(0.0983804 0.000297433 0)
(0.0982617 0.000302804 0)
(0.098144 0.000308114 0)
(0.0980273 0.000313232 0)
(0.0979116 0.000318112 0)
(0.0977969 0.000322743 0)
(0.0976833 0.000327121 0)
(0.0975708 0.000331236 0)
(0.0974594 0.000335068 0)
(0.0973493 0.000338588 0)
(0.0972406 0.000341761 0)
(0.0971332 0.000344548 0)
(0.0970274 0.000346911 0)
(0.0969231 0.000348816 0)
(0.0968205 0.000350239 0)
(0.0967196 0.000351165 0)
(0.0966205 0.000351599 0)
(0.0965233 0.000351559 0)
(0.0964279 0.000351084 0)
(0.0963344 0.000350237 0)
(0.0962427 0.000349102 0)
(0.0961529 0.000347785 0)
(0.0960649 0.00034642 0)
(0.0959786 0.00034516 0)
(0.0958939 0.000344188 0)
(0.0958106 0.000343709 0)
(0.0957285 0.000343951 0)
(0.0956475 0.000345174 0)
(0.0955671 0.000347656 0)
(0.0954872 0.000351712 0)
(0.0954074 0.000357682 0)
(0.0953273 0.000365941 0)
(0.0952464 0.000376904 0)
(0.0951644 0.000391026 0)
(0.0950807 0.000408815 0)
(0.0949947 0.000430835 0)
(0.094906 0.00045772 0)
(0.0948139 0.000490188 0)
(0.0947176 0.000529053 0)
(0.0946167 0.000575244 0)
(0.0945102 0.000629831 0)
(0.0943975 0.000694048 0)
(0.0942778 0.00076933 0)
(0.0941504 0.000857342 0)
(0.0940144 0.000960031 0)
(0.0938692 0.00107967 0)
(0.0937141 0.00121894 0)
(0.0935486 0.00138095 0)
(0.0933725 0.00156936 0)
(0.0931856 0.00178844 0)
(0.0929887 0.00204317 0)
(0.0927827 0.00233931 0)
(0.0925697 0.00268344 0)
(0.0923532 0.00308304 0)
(0.0921381 0.00354639 0)
(0.0919317 0.0040824 0)
(0.0917443 0.00470023 0)
(0.0915895 0.00540855 0)
(0.0914855 0.00621433 0)
(0.0914547 0.00712086 0)
(0.0915243 0.008125 0)
(0.0917244 0.00921318 0)
(0.0920851 0.0103568 0)
(0.0926297 0.0115078 0)
(0.0933654 0.0125971 0)
(0.0942706 0.0135405 0)
(0.100002 5.29202e-06 0)
(0.100001 4.44435e-05 0)
(0.0999848 0.00011665 0)
(0.0999406 0.000205517 0)
(0.0998632 0.000287086 0)
(0.0997557 0.000343562 0)
(0.0996267 0.000370263 0)
(0.0994862 0.000373512 0)
(0.0993429 0.000364075 0)
(0.0992021 0.000351479 0)
(0.099066 0.000341475 0)
(0.0989351 0.000336171 0)
(0.0988086 0.000335359 0)
(0.0986857 0.000337851 0)
(0.0985654 0.000342363 0)
(0.0984471 0.000347892 0)
(0.0983304 0.000353797 0)
(0.098215 0.000359722 0)
(0.0981007 0.000365496 0)
(0.0979876 0.00037105 0)
(0.0978755 0.000376359 0)
(0.0977645 0.00038141 0)
(0.0976547 0.000386186 0)
(0.0975461 0.000390663 0)
(0.0974386 0.000394807 0)
(0.0973325 0.000398581 0)
(0.0972277 0.000401942 0)
(0.0971243 0.000404851 0)
(0.0970224 0.000407273 0)
(0.096922 0.000409183 0)
(0.0968231 0.000410571 0)
(0.0967258 0.000411444 0)
(0.0966301 0.000411827 0)
(0.096536 0.000411768 0)
(0.0964435 0.00041134 0)
(0.0963526 0.00041064 0)
(0.0962632 0.000409793 0)
(0.0961752 0.00040895 0)
(0.0960886 0.000408287 0)
(0.0960033 0.000408011 0)
(0.095919 0.000408354 0)
(0.0958355 0.000409578 0)
(0.0957528 0.000411971 0)
(0.0956704 0.000415852 0)
(0.0955882 0.000421571 0)
(0.0955059 0.000429511 0)
(0.095423 0.000440092 0)
(0.0953392 0.000453773 0)
(0.0952542 0.000471061 0)
(0.0951675 0.000492514 0)
(0.0950786 0.00051875 0)
(0.0949872 0.000550459 0)
(0.0948926 0.000588413 0)
(0.0947944 0.000633483 0)
(0.0946921 0.000686654 0)
(0.0945852 0.000749044 0)
(0.0944732 0.000821931 0)
(0.0943556 0.000906777 0)
(0.094232 0.00100526 0)
(0.0941021 0.0011193 0)
(0.0939656 0.0012511 0)
(0.0938225 0.00140321 0)
(0.0936729 0.0015785 0)
(0.0935174 0.00178029 0)
(0.093357 0.00201231 0)
(0.093193 0.00227873 0)
(0.0930279 0.00258421 0)
(0.0928647 0.0029338 0)
(0.0927081 0.00333289 0)
(0.0925641 0.00378699 0)
(0.0924405 0.00430146 0)
(0.0923476 0.00488104 0)
(0.0922977 0.0055291 0)
(0.0923061 0.00624672 0)
(0.0923904 0.00703128 0)
(0.0925696 0.00787485 0)
(0.092863 0.00876224 0)
(0.0932875 0.00966917 0)
(0.0938536 0.0105613 0)
(0.0945602 0.0113952 0)
(0.09539 0.0121229 0)
(0.100002 4.66315e-06 0)
(0.100003 4.67161e-05 0)
(0.0999917 0.000126031 0)
(0.0999562 0.000225364 0)
(0.0998901 0.000318561 0)
(0.0997943 0.000385381 0)
(0.0996754 0.000419564 0)
(0.0995425 0.000427088 0)
(0.099404 0.000419313 0)
(0.099266 0.00040674 0)
(0.0991314 0.000396025 0)
(0.0990015 0.000389899 0)
(0.0988761 0.000388477 0)
(0.0987545 0.000390678 0)
(0.0986358 0.000395201 0)
(0.0985195 0.000400983 0)
(0.0984051 0.000407311 0)
(0.0982922 0.00041377 0)
(0.0981807 0.000420148 0)
(0.0980704 0.000426347 0)
(0.0979612 0.000432321 0)
(0.0978532 0.000438045 0)
(0.0977464 0.000443494 0)
(0.0976407 0.000448638 0)
(0.0975362 0.00045344 0)
(0.097433 0.000457859 0)
(0.097331 0.000461852 0)
(0.0972303 0.000465378 0)
(0.0971309 0.000468403 0)
(0.0970329 0.000470905 0)
(0.0969363 0.000472877 0)
(0.096841 0.000474331 0)
(0.0967471 0.0004753 0)
(0.0966545 0.000475841 0)
(0.0965633 0.000476038 0)
(0.0964733 0.000476003 0)
(0.0963846 0.000475875 0)
(0.0962969 0.000475823 0)
(0.0962103 0.000476047 0)
(0.0961245 0.000476774 0)
(0.0960395 0.000478262 0)
(0.095955 0.000480801 0)
(0.0958709 0.000484708 0)
(0.0957869 0.000490335 0)
(0.0957028 0.000498064 0)
(0.0956184 0.000508315 0)
(0.0955333 0.000521544 0)
(0.0954472 0.000538249 0)
(0.0953598 0.000558974 0)
(0.0952708 0.000584315 0)
(0.0951799 0.000614929 0)
(0.0950866 0.000651539 0)
(0.0949908 0.000694952 0)
(0.0948919 0.000746061 0)
(0.0947897 0.000805871 0)
(0.0946839 0.000875503 0)
(0.0945743 0.000956222 0)
(0.0944607 0.00104945 0)
(0.0943431 0.00115679 0)
(0.0942214 0.00128004 0)
(0.094096 0.00142122 0)
(0.0939673 0.0015826 0)
(0.0938361 0.00176667 0)
(0.0937035 0.0019762 0)
(0.0935711 0.00221419 0)
(0.093441 0.00248387 0)
(0.0933164 0.0027886 0)
(0.0932009 0.00313183 0)
(0.0930995 0.0035169 0)
(0.0930182 0.00394682 0)
(0.0929644 0.00442401 0)
(0.0929471 0.00494979 0)
(0.0929764 0.00552396 0)
(0.0930639 0.00614404 0)
(0.093222 0.00680455 0)
(0.093463 0.00749622 0)
(0.093798 0.0082052 0)
(0.0942357 0.00891272 0)
(0.0947793 0.00959525 0)
(0.0954251 0.0102259 0)
(0.0961603 0.010777 0)
(0.100002 3.67935e-06 0)
(0.100005 4.7954e-05 0)
(0.0999976 0.000133598 0)
(0.0999701 0.000242902 0)
(0.0999145 0.000347845 0)
(0.09983 0.000425786 0)
(0.0997214 0.000468642 0)
(0.0995967 0.000481693 0)
(0.0994641 0.000476612 0)
(0.0993298 0.000464742 0)
(0.0991978 0.000453652 0)
(0.0990697 0.000446779 0)
(0.098946 0.000444664 0)
(0.0988261 0.000446421 0)
(0.0987095 0.00045079 0)
(0.0985956 0.000456675 0)
(0.0984838 0.000463306 0)
(0.0983737 0.000470212 0)
(0.0982651 0.000477133 0)
(0.0981578 0.000483938 0)
(0.0980518 0.000490559 0)
(0.0979469 0.000496953 0)
(0.0978433 0.000503085 0)
(0.0977408 0.00050892 0)
(0.0976394 0.000514417 0)
(0.0975392 0.000519531 0)
(0.0974402 0.000524219 0)
(0.0973424 0.000528442 0)
(0.0972457 0.000532168 0)
(0.0971503 0.000535378 0)
(0.097056 0.000538071 0)
(0.0969629 0.000540264 0)
(0.0968709 0.000541999 0)
(0.09678 0.000543344 0)
(0.0966902 0.000544393 0)
(0.0966013 0.000545271 0)
(0.0965134 0.000546133 0)
(0.0964262 0.000547165 0)
(0.0963397 0.000548583 0)
(0.0962538 0.000550637 0)
(0.0961683 0.000553607 0)
(0.0960831 0.000557803 0)
(0.095998 0.000563571 0)
(0.0959128 0.000571286 0)
(0.0958273 0.000581359 0)
(0.0957413 0.000594236 0)
(0.0956545 0.0006104 0)
(0.0955668 0.000630375 0)
(0.0954778 0.00065473 0)
(0.0953875 0.000684083 0)
(0.0952954 0.000719108 0)
(0.0952015 0.00076054 0)
(0.0951055 0.000809186 0)
(0.0950073 0.000865935 0)
(0.0949067 0.000931765 0)
(0.0948037 0.00100775 0)
(0.0946982 0.0010951 0)
(0.0945905 0.00119511 0)
(0.0944808 0.00130923 0)
(0.0943694 0.00143906 0)
(0.0942571 0.00158634 0)
(0.0941446 0.00175292 0)
(0.0940332 0.00194084 0)
(0.0939244 0.00215219 0)
(0.0938203 0.00238918 0)
(0.0937234 0.002654 0)
(0.0936369 0.00294879 0)
(0.0935647 0.00327547 0)
(0.0935113 0.00363564 0)
(0.0934824 0.00403032 0)
(0.0934843 0.00445973 0)
(0.0935238 0.00492299 0)
(0.0936089 0.00541776 0)
(0.0937475 0.00593988 0)
(0.0939476 0.00648305 0)
(0.0942166 0.00703849 0)
(0.0945601 0.00759485 0)
(0.0949818 0.00813831 0)
(0.0954816 0.00865311 0)
(0.0960551 0.00912253 0)
(0.096693 0.00953053 0)
(0.100002 2.37256e-06 0)
(0.100006 4.8221e-05 0)
(0.100002 0.000139414 0)
(0.0999815 0.000258124 0)
(0.0999353 0.000374802 0)
(0.0998614 0.000464496 0)
(0.099763 0.000517105 0)
(0.0996469 0.00053689 0)
(0.0995208 0.000535553 0)
(0.0993913 0.000525131 0)
(0.0992628 0.000514083 0)
(0.0991375 0.000506615 0)
(0.0990161 0.000503788 0)
(0.0988986 0.000504989 0)
(0.0987845 0.000509062 0)
(0.0986732 0.000514914 0)
(0.0985643 0.000521732 0)
(0.0984572 0.000528996 0)
(0.0983517 0.000536399 0)
(0.0982477 0.000543772 0)
(0.0981449 0.000551019 0)
(0.0980434 0.000558082 0)
(0.097943 0.000564912 0)
(0.0978437 0.000571466 0)
(0.0977455 0.0005777 0)
(0.0976485 0.000583567 0)
(0.0975525 0.000589025 0)
(0.0974576 0.000594036 0)
(0.0973637 0.000598573 0)
(0.0972709 0.000602622 0)
(0.097179 0.000606187 0)
(0.0970881 0.000609294 0)
(0.0969981 0.000611994 0)
(0.0969089 0.000614363 0)
(0.0968206 0.000616507 0)
(0.0967329 0.000618564 0)
(0.0966458 0.000620701 0)
(0.0965593 0.000623119 0)
(0.0964732 0.00062605 0)
(0.0963873 0.00062976 0)
(0.0963017 0.000634545 0)
(0.096216 0.000640736 0)
(0.0961303 0.000648695 0)
(0.0960443 0.000658817 0)
(0.0959578 0.00067153 0)
(0.0958708 0.000687298 0)
(0.0957831 0.000706617 0)
(0.0956945 0.000730026 0)
(0.0956048 0.000758098 0)
(0.095514 0.000791456 0)
(0.0954219 0.000830766 0)
(0.0953285 0.000876751 0)
(0.0952337 0.000930189 0)
(0.0951375 0.000991923 0)
(0.09504 0.00106287 0)
(0.0949413 0.00114401 0)
(0.0948417 0.00123641 0)
(0.0947415 0.00134123 0)
(0.0946413 0.00145969 0)
(0.0945418 0.00159311 0)
(0.0944438 0.00174285 0)
(0.0943486 0.00191036 0)
(0.0942575 0.00209709 0)
(0.0941724 0.00230448 0)
(0.0940955 0.00253392 0)
(0.0940293 0.00278666 0)
(0.093977 0.00306372 0)
(0.093942 0.00336581 0)
(0.0939285 0.00369317 0)
(0.093941 0.00404539 0)
(0.0939845 0.00442132 0)
(0.094064 0.00481881 0)
(0.0941851 0.00523456 0)
(0.0943528 0.00566398 0)
(0.094572 0.00610105 0)
(0.0948464 0.00653833 0)
(0.0951785 0.00696705 0)
(0.0955693 0.00737733 0)
(0.096017 0.00775868 0)
(0.0965177 0.00810066 0)
(0.0970645 0.00839373 0)
(0.100002 7.92505e-07 0)
(0.100006 4.7644e-05 0)
(0.100006 0.00014366 0)
(0.0999903 0.000271192 0)
(0.0999521 0.00039948 0)
(0.0998877 0.00050138 0)
(0.0997989 0.000564647 0)
(0.0996915 0.000592258 0)
(0.0995726 0.000595678 0)
(0.0994489 0.000587476 0)
(0.0993248 0.000576955 0)
(0.099203 0.000569127 0)
(0.0990848 0.00056564 0)
(0.0989702 0.000566234 0)
(0.098859 0.000569912 0)
(0.0987507 0.000575621 0)
(0.0986448 0.000582529 0)
(0.0985409 0.000590073 0)
(0.0984387 0.000597901 0)
(0.098338 0.000605808 0)
(0.0982386 0.00061367 0)
(0.0981404 0.000621405 0)
(0.0980433 0.000628955 0)
(0.0979473 0.000636267 0)
(0.0978524 0.000643292 0)
(0.0977584 0.000649983 0)
(0.0976654 0.000656298 0)
(0.0975734 0.000662204 0)
(0.0974822 0.000667677 0)
(0.0973919 0.000672712 0)
(0.0973024 0.000677317 0)
(0.0972137 0.000681529 0)
(0.0971257 0.000685405 0)
(0.0970382 0.000689033 0)
(0.0969513 0.000692527 0)
(0.0968649 0.000696037 0)
(0.0967788 0.00069974 0)
(0.096693 0.000703848 0)
(0.0966074 0.000708606 0)
(0.0965218 0.00071429 0)
(0.0964362 0.000721209 0)
(0.0963505 0.000729706 0)
(0.0962645 0.000740152 0)
(0.0961782 0.000752953 0)
(0.0960914 0.000768544 0)
(0.096004 0.000787392 0)
(0.095916 0.000809996 0)
(0.0958273 0.000836889 0)
(0.0957379 0.000868634 0)
(0.0956476 0.000905834 0)
(0.0955566 0.000949127 0)
(0.0954649 0.000999192 0)
(0.0953725 0.00105675 0)
(0.0952797 0.00112256 0)
(0.0951866 0.00119744 0)
(0.0950937 0.00128223 0)
(0.0950013 0.00137784 0)
(0.09491 0.00148521 0)
(0.0948205 0.0016053 0)
(0.0947338 0.00173909 0)
(0.0946508 0.00188759 0)
(0.094573 0.00205176 0)
(0.0945018 0.0022325 0)
(0.0944392 0.00243063 0)
(0.0943872 0.00264681 0)
(0.0943482 0.0028815 0)
(0.094325 0.00313483 0)
(0.0943206 0.0034066 0)
(0.0943383 0.00369613 0)
(0.0943816 0.00400214 0)
(0.094454 0.00432273 0)
(0.0945592 0.00465523 0)
(0.0947006 0.00499614 0)
(0.0948812 0.00534113 0)
(0.0951036 0.00568501 0)
(0.0953695 0.00602186 0)
(0.0956794 0.00634513 0)
(0.0960328 0.00664791 0)
(0.0964277 0.00692323 0)
(0.0968605 0.00716446 0)
(0.0973263 0.00736579 0)
(0.100002 -1.00386e-06 0)
(0.100007 4.63851e-05 0)
(0.100008 0.000146599 0)
(0.0999967 0.000282392 0)
(0.099965 0.000422073 0)
(0.0999087 0.000536448 0)
(0.0998288 0.000611071 0)
(0.0997299 0.000647428 0)
(0.0996187 0.000656528 0)
(0.0995013 0.000651308 0)
(0.0993824 0.000641847 0)
(0.0992651 0.000633967 0)
(0.0991506 0.000629956 0)
(0.0990396 0.000629961 0)
(0.0989317 0.0006332 0)
(0.0988267 0.000638697 0)
(0.0987241 0.000645625 0)
(0.0986235 0.00065339 0)
(0.0985247 0.000661603 0)
(0.0984273 0.000670023 0)
(0.0983313 0.000678496 0)
(0.0982364 0.000686922 0)
(0.0981426 0.000695226 0)
(0.0980499 0.000703347 0)
(0.0979581 0.000711232 0)
(0.0978671 0.000718833 0)
(0.0977771 0.000726111 0)
(0.0976878 0.000733035 0)
(0.0975993 0.000739589 0)
(0.0975114 0.000745772 0)
(0.0974242 0.000751602 0)
(0.0973376 0.000757122 0)
(0.0972514 0.000762399 0)
(0.0971656 0.000767528 0)
(0.0970802 0.000772633 0)
(0.096995 0.000777869 0)
(0.0969099 0.000783423 0)
(0.096825 0.000789516 0)
(0.09674 0.000796396 0)
(0.096655 0.000804349 0)
(0.0965697 0.000813687 0)
(0.0964843 0.000824756 0)
(0.0963985 0.000837931 0)
(0.0963123 0.000853614 0)
(0.0962257 0.000872237 0)
(0.0961387 0.000894259 0)
(0.0960513 0.000920162 0)
(0.0959633 0.000950457 0)
(0.095875 0.00098568 0)
(0.0957863 0.00102639 0)
(0.0956975 0.00107317 0)
(0.0956085 0.00112664 0)
(0.0955198 0.00118742 0)
(0.0954316 0.00125617 0)
(0.0953442 0.00133356 0)
(0.0952582 0.00142028 0)
(0.095174 0.00151703 0)
(0.0950926 0.00162452 0)
(0.0950145 0.00174341 0)
(0.094941 0.00187438 0)
(0.094873 0.00201802 0)
(0.094812 0.00217487 0)
(0.0947594 0.00234533 0)
(0.0947171 0.00252969 0)
(0.0946868 0.002728 0)
(0.0946708 0.00294012 0)
(0.0946713 0.00316556 0)
(0.0946906 0.00340351 0)
(0.0947312 0.00365274 0)
(0.0947957 0.00391156 0)
(0.0948866 0.00417778 0)
(0.095006 0.00444868 0)
(0.0951559 0.00472102 0)
(0.0953381 0.00499104 0)
(0.0955536 0.00525455 0)
(0.0958028 0.005507 0)
(0.0960853 0.00574362 0)
(0.0964001 0.00595962 0)
(0.0967451 0.00615036 0)
(0.0971173 0.00631159 0)
(0.0975132 0.00643967 0)
(0.100002 -2.96058e-06 0)
(0.100007 4.4615e-05 0)
(0.100009 0.000148522 0)
(0.100001 0.000292075 0)
(0.0999743 0.000442869 0)
(0.0999249 0.000569821 0)
(0.099853 0.000656279 0)
(0.0997623 0.000702111 0)
(0.0996588 0.000717689 0)
(0.0995482 0.000716168 0)