/*--------------------------------*- C++ -*----------------------------------*\
| =========                 |                                                 |
| \\      /  F ield         | OpenFOAM: The Open Source CFD Toolbox           |
|  \\    /   O peration     | Version:  5.x                                   |
|   \\  /    A nd           | Web:      www.OpenFOAM.org                      |
|    \\/     M anipulation  |                                                 |
\*---------------------------------------------------------------------------*/
FoamFile
{
    version     2.0;
    format      ascii;
    class       volScalarField;
    location    "0.4";
    object      gradTx;
}
// * * * * * * * * * * * * * * * * * * * * * * * * * * * * * * * * * * * * * //

dimensions      [0 -1 0 1 0 0 0];

internalField   nonuniform List<scalar> 
512
(
0.0086455
0.0243573
0.0360193
0.0425704
0.0443598
0.0425173
0.0383679
0.0331077
0.0275673
0.0222953
0.0175784
0.0135167
0.0100961
0.00723861
0.00483371
0.0027566
0.00087865
-0.000927892
-0.0027878
-0.00482094
-0.00713773
-0.00982852
-0.0129433
-0.016459
-0.0202315
-0.0239376
-0.027019
-0.0286678
-0.0279151
-0.0238953
-0.0162967
-0.00580748
0.0263328
0.0740933
0.109345
0.128919
0.134001
0.128144
0.115402
0.0994038
0.082649
0.0667616
0.0525831
0.0403984
0.030154
0.0216078
0.014423
0.00822259
0.00261949
-0.00277011
-0.00832102
-0.014394
-0.021323
-0.0293842
-0.038736
-0.0493202
-0.0607203
-0.0719796
-0.0814268
-0.0866157
-0.0845734
-0.0725899
-0.0496182
-0.0177054
0.0452493
0.126986
0.186618
0.21894
0.226427
0.215533
0.19331
0.165926
0.137556
0.110842
0.0871232
0.0668209
0.0498072
0.035652
0.0237775
0.013547
0.00431107
-0.00457138
-0.0137266
-0.0237595
-0.0352354
-0.0486315
-0.0642389
-0.0820008
-0.101272
-0.120507
-0.136935
-0.146408
-0.14375
-0.124059
-0.085188
-0.0304794
0.0663534
0.185462
0.270765
0.31525
0.323538
0.305823
0.272609
0.232761
0.192118
0.154242
0.120865
0.0924646
0.0687794
0.0491518
0.0327401
0.0186354
0.00592111
-0.0063035
-0.0189175
-0.032775
-0.0486849
-0.0673498
-0.0892349
-0.114344
-0.141881
-0.169792
-0.194242
-0.209294
-0.207242
-0.180365
-0.124729
-0.0448104
0.0908428
0.252476
0.365192
0.420716
0.427287
0.400084
0.353711
0.299896
0.246086
0.196611
0.15344
0.11699
0.0867843
0.0618839
0.0411526
0.0233941
0.00741808
-0.00793701
-0.0238044
-0.0412925
-0.0614695
-0.085297
-0.11347
-0.146136
-0.182466
-0.220021
-0.253985
-0.276543
-0.277017
-0.243918
-0.170356
-0.0615577
0.120316
0.331834
0.47403
0.538557
0.539667
0.499269
0.436862
0.367164
0.299097
0.237521
0.184434
0.140033
0.103524
0.0736202
0.0488556
0.0277295
0.0087716
-0.00944099
-0.0282948
-0.0491569
-0.0733723
-0.102201
-0.136639
-0.177086
-0.222834
-0.271251
-0.316692
-0.349427
-0.355284
-0.317661
-0.224812
-0.0818776
0.15702
0.42867
0.602442
0.672422
0.662663
0.604127
0.522067
0.434199
0.35064
0.276451
0.213376
0.1612
0.118685
0.0841281
0.0556899
0.0315498
0.00995281
-0.0107831
-0.0322938
-0.0562065
-0.084159
-0.117756
-0.158376
-0.206801
-0.262644
-0.323351
-0.382713
-0.42917
-0.444545
-0.4053
-0.291828
-0.107405
0.204261
0.550148
0.75701
0.826433
0.798145
0.715082
0.609002
0.500372
0.400026
0.312771
0.239734
0.180063
0.131945
0.093172
0.0614971
0.0347655
0.0109348
-0.0119297
-0.0357047
-0.0622734
-0.0935781
-0.131617
-0.178245
-0.234768
-0.301367
-0.375936
-0.452123
-0.516848
-0.54761
-0.511607
-0.376647
-0.140548
0.267093
0.706579
0.9462
1.00513
0.947662
0.832054
0.696897
0.56473
0.446356
0.345728
0.262912
0.196167
0.142967
0.100516
0.0661218
0.0372906
0.0116929
-0.012847
-0.0384316
-0.0671873
-0.101363
-0.143402
-0.195736
-0.260337
-0.338247
-0.42829
-0.524585
-0.61321
-0.667545
-0.642794
-0.486846
-0.184977
0.353538
0.913189
1.18088
1.21323
1.1121
0.954225
0.784406
0.625939
0.488499
0.374445
0.282249
0.209025
0.151411
0.105927
0.0694138
0.0390448
0.0122057
-0.0135018
-0.0403817
-0.0707805
-0.107238
-0.152692
-0.210266
-0.282715
-0.372262
-0.479275
-0.599177
-0.718369
-0.807463
-0.806956
-0.633657
-0.246478
0.476812
1.19301
1.47478
1.4551
1.29114
1.07975
0.869477
0.682229
0.525076
0.397933
0.297038
0.218134
0.15694
0.109182
0.0712315
0.0399562
0.0124551
-0.0138626
-0.0414697
-0.0728968
-0.110923
-0.159038
-0.221194
-0.300969
-0.402095
-0.527254
-0.674186
-0.83131
-0.970037
-1.01454
-0.834096
-0.334482
0.659489
1.5817
1.84446
1.73355
1.48252
1.20542
0.94923
0.731373
0.554463
0.415118
0.306538
0.222979
0.159236
0.110078
0.0714448
0.0399652
0.012429
-0.0139005
-0.0416218
-0.0734037
-0.112149
-0.161967
-0.227842
-0.314047
-0.426123
-0.570031
-0.746915
-0.949146
-1.15647
-1.27862
-1.11451
-0.464883
0.941533
2.13556
2.30804
2.04766
1.68098
1.32638
1.01988
0.770701
0.574806
0.424896
0.310009
0.223045
0.158017
0.10844
0.0699369
0.0390308
0.0121219
-0.0135903
-0.0407791
-0.0722118
-0.110676
-0.16098
-0.229543
-0.320833
-0.442412
-0.604828
-0.813605
-1.06605
-1.36457
-1.61459
-1.51651
-0.665392
1.39618
2.94525
2.88034
2.38911
1.8771
1.4359
1.07674
0.797169
0.584034
0.426225
0.306741
0.217812
0.153074
0.104135
0.0665987
0.0371405
0.0115368
-0.012911
-0.0388963
-0.0693057
-0.106313
-0.15553
-0.225702
-0.320233
-0.448725
-0.628325
-0.869714
-1.17182
-1.58523
-2.03796
-2.10705
-0.985933
2.16213
4.15909
3.5598
2.73657
2.05627
1.52558
1.11431
0.807525
0.579836
0.418295
0.296084
0.206721
0.144321
0.097078
0.061309
0.0343288
0.0106828
-0.011848
-0.0359291
-0.0647951
-0.098968
-0.144947
-0.215917
-0.311335
-0.442509
-0.636688
-0.911014
-1.25021
-1.79656
-2.5577
-2.99553
-1.51936
3.5104
6.02287
4.29608
3.04919
2.19889
1.58618
1.12639
0.798646
0.559531
0.400873
0.277473
0.18908
0.131918
0.0872516
0.053888
0.0307248
0.00956935
-0.0103985
-0.0317875
-0.0590026
-0.0887428
-0.128219
-0.200168
-0.293697
-0.420801
-0.625353
-0.936511
-1.27728
-1.95477
-3.15886
-4.36308
-2.44372
)
;

boundaryField
{
    left
    {
        type            calculated;
        value           uniform 0;
    }
    right
    {
        type            calculated;
        value           uniform 0;
    }
    interface
    {
        type            calculated;
        value           nonuniform List<scalar> 
32
(
3.5104
6.02287
4.29608
3.04919
2.19889
1.58618
1.12639
0.798646
0.559531
0.400873
0.277473
0.18908
0.131918
0.0872516
0.053888
0.0307248
0.00956935
-0.0103985
-0.0317875
-0.0590026
-0.0887428
-0.128219
-0.200168
-0.293697
-0.420801
-0.625353
-0.936511
-1.27728
-1.95477
-3.15886
-4.36308
-2.44372
)
;
    }
    bottom
    {
        type            calculated;
        value           nonuniform List<scalar> 
32
(
0.0086455
0.0243573
0.0360193
0.0425704
0.0443598
0.0425173
0.0383679
0.0331077
0.0275673
0.0222953
0.0175784
0.0135167
0.0100961
0.00723861
0.00483371
0.0027566
0.00087865
-0.000927892
-0.0027878
-0.00482094
-0.00713773
-0.00982852
-0.0129433
-0.016459
-0.0202315
-0.0239376
-0.027019
-0.0286678
-0.0279151
-0.0238953
-0.0162967
-0.00580748
)
;
    }
    defaultFaces
    {
        type            empty;
    }
}


// ************************************************************************* //
