/*--------------------------------*- C++ -*----------------------------------*\
| =========                 |                                                 |
| \\      /  F ield         | OpenFOAM: The Open Source CFD Toolbox           |
|  \\    /   O peration     | Version:  5.x                                   |
|   \\  /    A nd           | Web:      www.OpenFOAM.org                      |
|    \\/     M anipulation  |                                                 |
\*---------------------------------------------------------------------------*/
FoamFile
{
    version     2.0;
    format      ascii;
    class       volScalarField;
    location    "0.8";
    object      gradTx;
}
// * * * * * * * * * * * * * * * * * * * * * * * * * * * * * * * * * * * * * //

dimensions      [0 -1 0 1 0 0 0];

internalField   nonuniform List<scalar> 
512
(
0.0119321
0.0338912
0.0508313
0.0613457
0.0656429
0.0649383
0.0607842
0.0545822
0.0474598
0.0401851
0.0332289
0.0268421
0.0211201
0.0160532
0.0115644
0.00753501
0.00382274
0.000274508
-0.00326411
-0.00694013
-0.0108817
-0.0151796
-0.0198598
-0.0248426
-0.0298915
-0.0345527
-0.0381059
-0.039566
-0.0378054
-0.0318719
-0.0215024
-0.00761869
0.0362765
0.102934
0.154109
0.185598
0.19819
0.19569
0.182873
0.163991
0.142431
0.120486
0.0995527
0.0803674
0.0632029
0.0480208
0.0345831
0.0225294
0.0114299
0.000822804
-0.00975727
-0.0207542
-0.0325569
-0.0454453
-0.0595065
-0.074515
-0.0897758
-0.103941
-0.114848
-0.11951
-0.114467
-0.0967322
-0.0653923
-0.0231975
0.0621072
0.17586
0.262335
0.314595
0.334539
0.329063
0.306504
0.274111
0.237535
0.200564
0.165465
0.13341
0.10481
0.0795691
0.0572697
0.0372961
0.0189217
0.00136919
-0.0161442
-0.0343677
-0.0539641
-0.0754237
-0.0989249
-0.124135
-0.149948
-0.17416
-0.19317
-0.201903
-0.194325
-0.165016
-0.112013
-0.0398331
0.0905776
0.25562
0.379158
0.451713
0.477285
0.466775
0.432641
0.38534
0.332798
0.280223
0.230658
0.185625
0.145609
0.11041
0.0793975
0.0516808
0.0262208
0.00191369
-0.0223504
-0.0476392
-0.0749113
-0.104902
-0.137931
-0.173625
-0.210546
-0.245711
-0.274098
-0.288415
-0.279657
-0.23926
-0.163448
-0.0583436
0.123117
0.34577
0.508781
0.60064
0.629107
0.610492
0.562135
0.497964
0.428153
0.359198
0.294777
0.236638
0.185249
0.140242
0.100733
0.0655256
0.033249
0.00245799
-0.0282964
-0.060417
-0.095187
-0.133635
-0.176291
-0.222835
-0.271618
-0.319001
-0.358595
-0.380752
-0.372958
-0.322409
-0.222222
-0.0797452
0.161613
0.450847
0.656258
0.765502
0.792769
0.761768
0.695666
0.612102
0.523395
0.437128
0.3574
0.286029
0.22335
0.168748
0.121032
0.0786679
0.039927
0.00300604
-0.0338962
-0.0725356
-0.114554
-0.161334
-0.213706
-0.271523
-0.333088
-0.394296
-0.447519
-0.480649
-0.47702
-0.418027
-0.291577
-0.105384
0.208691
0.576901
0.82785
0.950973
0.971081
0.921971
0.833665
0.727649
0.618151
0.51353
0.418027
0.333326
0.259501
0.19559
0.140039
0.0909405
0.0461754
0.00356445
-0.0390564
-0.0838137
-0.132745
-0.187658
-0.249795
-0.31932
-0.394706
-0.471659
-0.541549
-0.589823
-0.595006
-0.530572
-0.375863
-0.137137
0.268173
0.732302
1.03149
1.16234
1.1668
1.09216
0.976218
0.84421
0.711833
0.587781
0.476064
0.378
0.293254
0.22041
0.157488
0.102172
0.0519147
0.0041426
-0.0436766
-0.0940536
-0.149456
-0.212204
-0.284076
-0.365706
-0.456002
-0.550872
-0.64108
-0.709868
-0.730486
-0.66575
-0.481138
-0.177742
0.345848
0.92899
1.27731
1.40549
1.38244
1.27288
1.12294
0.961031
0.803599
0.659099
0.530818
0.419455
0.324128
0.242829
0.1731
0.112186
0.0570663
0.00475225
-0.0476509
-0.103044
-0.16435
-0.234501
-0.315965
-0.409989
-0.516236
-0.631349
-0.746075
-0.842063
-0.887402
-0.830962
-0.616097
-0.231336
0.450822
1.18447
1.5783
1.68667
1.61986
1.46396
1.27285
1.07692
0.892325
0.726534
0.581494
0.457032
0.351604
0.262446
0.186581
0.120807
0.0615545
0.00540638
-0.0508708
-0.110563
-0.177055
-0.254008
-0.344769
-0.451289
-0.574347
-0.712035
-0.85588
-0.987037
-1.06986
-1.03585
-0.793534
-0.304394
0.597965
1.52502
1.9508
2.01187
1.87978
1.66413
1.42419
1.19021
0.976563
0.788977
0.627196
0.489996
0.375136
0.278842
0.197618
0.127859
0.0653087
0.00611711
-0.0532294
-0.11639
-0.18717
-0.270105
-0.369696
-0.488539
-0.628904
-0.791305
-0.968991
-1.14422
-1.28165
-1.29289
-1.03272
-0.407374
0.812477
1.99105
2.41465
2.38561
2.16083
1.87069
1.5743
1.29866
1.05453
0.845184
0.666941
0.517537
0.394162
0.291581
0.205877
0.133173
0.0682683
0.00689221
-0.054627
-0.120324
-0.194274
-0.282085
-0.38988
-0.520501
-0.678068
-0.866889
-1.08286
-1.31099
-1.5251
-1.61791
-1.36328
-0.557735
1.13867
2.64603
2.99191
2.80853
2.4585
2.07914
1.71954
1.39951
1.12405
0.893851
0.699681
0.538744
0.408134
0.300217
0.210978
0.136607
0.0703923
0.00772919
-0.0549737
-0.122207
-0.197945
-0.289122
-0.404433
-0.54583
-0.719545
-0.935829
-1.19386
-1.48141
-1.79901
-2.02994
-1.83167
-0.785603
1.65738
3.59163
3.70183
3.27339
2.76384
2.283
1.85522
1.48953
1.18256
0.933768
0.724334
0.552558
0.416589
0.304309
0.21246
0.138074
0.0716776
0.00860303
-0.0541818
-0.121979
-0.197791
-0.290184
-0.412549
-0.56319
-0.750515
-0.994489
-1.29765
-1.64448
-2.09476
-2.54948
-2.51213
-1.14475
2.52115
4.99351
4.54693
3.75888
3.06239
2.47401
1.97576
1.56522
1.22684
0.964135
0.739822
0.557631
0.419295
0.303433
0.209683
0.137623
0.0721866
0.00943384
-0.05213
-0.119762
-0.19353
-0.283815
-0.413687
-0.5715
-0.767469
-1.03852
-1.39071
-1.78189
-2.3896
-3.19228
-3.52518
-1.73439
4.0274
7.12536
5.47786
4.22195
3.33435
2.64292
2.07479
1.62327
1.25255
0.985214
0.745043
0.551958
0.416563
0.297171
0.201591
0.135598
0.0720795
0.00999551
-0.0485562
-0.11603
-0.18518
-0.267615
-0.407939
-0.5704
-0.765808
-1.06245
-1.47425
-1.86538
-2.63594
-3.95278
-5.06932
-2.74355
)
;

boundaryField
{
    left
    {
        type            calculated;
        value           uniform 0;
    }
    right
    {
        type            calculated;
        value           uniform 0;
    }
    interface
    {
        type            calculated;
        value           nonuniform List<scalar> 
32
(
4.0274
7.12536
5.47786
4.22195
3.33435
2.64292
2.07479
1.62327
1.25255
0.985214
0.745043
0.551958
0.416563
0.297171
0.201591
0.135598
0.0720795
0.00999551
-0.0485562
-0.11603
-0.18518
-0.267615
-0.407939
-0.5704
-0.765808
-1.06245
-1.47425
-1.86538
-2.63594
-3.95278
-5.06932
-2.74355
)
;
    }
    bottom
    {
        type            calculated;
        value           nonuniform List<scalar> 
32
(
0.0119321
0.0338912
0.0508313
0.0613457
0.0656429
0.0649383
0.0607842
0.0545822
0.0474598
0.0401851
0.0332289
0.0268421
0.0211201
0.0160532
0.0115644
0.00753501
0.00382274
0.000274508
-0.00326411
-0.00694013
-0.0108817
-0.0151796
-0.0198598
-0.0248426
-0.0298915
-0.0345527
-0.0381059
-0.039566
-0.0378054
-0.0318719
-0.0215024
-0.00761869
)
;
    }
    defaultFaces
    {
        type            empty;
    }
}


// ************************************************************************* //
