/*--------------------------------*- C++ -*----------------------------------*\
| =========                 |                                                 |
| \\      /  F ield         | OpenFOAM: The Open Source CFD Toolbox           |
|  \\    /   O peration     | Version:  5.x                                   |
|   \\  /    A nd           | Web:      www.OpenFOAM.org                      |
|    \\/     M anipulation  |                                                 |
\*---------------------------------------------------------------------------*/
FoamFile
{
    version     2.0;
    format      ascii;
    class       surfaceScalarField;
    location    "0.2";
    object      phi;
}
// * * * * * * * * * * * * * * * * * * * * * * * * * * * * * * * * * * * * * //

dimensions      [1 0 -1 0 0 0 0];

internalField   nonuniform List<scalar> 
23692
(
9.28787e-05
2.00816e-07
9.25533e-05
3.25417e-07
9.22549e-05
2.98436e-07
9.20489e-05
2.06043e-07
9.19091e-05
1.39796e-07
9.17925e-05
1.16542e-07
9.16742e-05
1.1831e-07
9.15463e-05
1.27936e-07
9.14091e-05
1.37236e-07
9.1265e-05
1.44096e-07
9.11162e-05
1.48793e-07
9.09641e-05
1.521e-07
9.08094e-05
1.54643e-07
9.06526e-05
1.56804e-07
9.04939e-05
1.58793e-07
9.03332e-05
1.60707e-07
9.01706e-05
1.62596e-07
9.00062e-05
1.6447e-07
8.98399e-05
1.66334e-07
8.96718e-05
1.68169e-07
8.95019e-05
1.69947e-07
8.93304e-05
1.71626e-07
8.91574e-05
1.73165e-07
8.89831e-05
1.74518e-07
8.88077e-05
1.75649e-07
8.86314e-05
1.76533e-07
8.84547e-05
1.77146e-07
8.82777e-05
1.7748e-07
8.81007e-05
1.77531e-07
8.79241e-05
1.77311e-07
8.77481e-05
1.76839e-07
8.75729e-05
1.76148e-07
8.73988e-05
1.7527e-07
8.72259e-05
1.74247e-07
8.70543e-05
1.73116e-07
8.68842e-05
1.71927e-07
8.67156e-05
1.70719e-07
8.65484e-05
1.69532e-07
8.63827e-05
1.68404e-07
8.62184e-05
1.67365e-07
8.60553e-05
1.66449e-07
8.58934e-05
1.65679e-07
8.57325e-05
1.65081e-07
8.55725e-05
1.64671e-07
8.54131e-05
1.64465e-07
8.52541e-05
1.64466e-07
8.50955e-05
1.64688e-07
8.49368e-05
1.65134e-07
8.4778e-05
1.65815e-07
8.46188e-05
1.66742e-07
8.4459e-05
1.67929e-07
8.42982e-05
1.69401e-07
8.41361e-05
1.71194e-07
8.39724e-05
1.73359e-07
8.38066e-05
1.75967e-07
8.36382e-05
1.79111e-07
8.34665e-05
1.82918e-07
8.32907e-05
1.87547e-07
8.31098e-05
1.93204e-07
8.29223e-05
2.00147e-07
8.27268e-05
2.08711e-07
8.25211e-05
2.19315e-07
8.23027e-05
2.32499e-07
8.20683e-05
2.48962e-07
8.18135e-05
2.69617e-07
8.15331e-05
2.95666e-07
8.122e-05
3.28725e-07
8.0865e-05
3.70987e-07
8.04558e-05
4.25492e-07
7.99759e-05
4.96521e-07
7.94025e-05
5.9022e-07
7.8704e-05
7.15588e-07
7.78352e-05
8.8605e-07
7.67307e-05
1.12199e-06
7.52936e-05
1.45485e-06
7.33777e-05
1.93372e-06
7.07602e-05
2.63541e-06
6.70972e-05
3.68113e-06
6.18414e-05
5.27398e-06
5.40696e-05
7.79004e-06
1.22231e-05
4.18647e-05
9.93937e-05
4.06425e-07
9.90527e-05
6.66496e-07
9.87358e-05
6.1532e-07
9.85143e-05
4.27533e-07
9.83623e-05
2.91778e-07
9.82354e-05
2.43438e-07
9.81074e-05
2.46337e-07
9.79698e-05
2.65538e-07
9.78228e-05
2.84282e-07
9.76687e-05
2.98169e-07
9.75098e-05
3.07714e-07
9.73474e-05
3.14453e-07
9.71824e-05
3.1965e-07
9.70152e-05
3.24077e-07
9.68458e-05
3.28156e-07
9.66745e-05
3.3209e-07
9.65011e-05
3.35962e-07
9.63258e-05
3.39815e-07
9.61486e-05
3.43644e-07
9.59694e-05
3.47417e-07
9.57884e-05
3.51069e-07
9.56056e-05
3.54526e-07
9.54212e-05
3.57688e-07
9.52355e-05
3.60477e-07
9.50486e-05
3.62812e-07
9.48608e-05
3.64637e-07
9.46724e-05
3.65912e-07
9.44838e-05
3.66614e-07
9.42952e-05
3.66739e-07
9.41069e-05
3.66306e-07
9.39193e-05
3.65359e-07
9.37325e-05
3.63961e-07
9.35468e-05
3.62182e-07
9.33624e-05
3.60102e-07
9.31794e-05
3.57806e-07
9.29979e-05
3.55385e-07
9.28179e-05
3.52927e-07
9.26395e-05
3.50513e-07
9.24625e-05
3.48216e-07
9.2287e-05
3.46103e-07
9.21129e-05
3.44241e-07
9.19399e-05
3.42682e-07
9.1768e-05
3.41473e-07
9.1597e-05
3.4065e-07
9.14266e-05
3.4024e-07
9.12567e-05
3.40263e-07
9.10871e-05
3.40732e-07
9.09176e-05
3.41664e-07
9.07478e-05
3.43075e-07
9.05776e-05
3.44989e-07
9.04067e-05
3.47437e-07
9.02349e-05
3.50467e-07
9.00617e-05
3.54152e-07
8.98868e-05
3.58598e-07
8.97097e-05
3.63944e-07
8.95299e-05
3.70384e-07
8.93466e-05
3.78172e-07
8.91591e-05
3.8763e-07
8.89662e-05
3.99173e-07
8.87666e-05
4.13324e-07
8.85587e-05
4.30747e-07
8.83403e-05
4.52283e-07
8.81088e-05
4.79005e-07
8.7861e-05
5.12297e-07
8.75926e-05
5.5395e-07
8.72983e-05
6.06314e-07
8.69712e-05
6.72511e-07
8.66025e-05
7.56745e-07
8.61807e-05
8.6476e-07
8.56904e-05
1.00453e-06
8.51113e-05
1.18729e-06
8.4416e-05
1.42913e-06
8.35672e-05
1.75342e-06
8.25135e-05
2.19441e-06
8.11847e-05
2.80254e-06
7.94858e-05
3.65169e-06
7.72934e-05
4.84697e-06
7.44641e-05
6.52979e-06
7.08817e-05
8.87579e-06
6.66664e-05
1.20249e-05
1.55813e-05
6.33278e-05
0.000106375
6.07613e-07
0.000106027
1.01429e-06
0.000105696
9.46456e-07
0.000105456
6.66835e-07
0.000105288
4.60509e-07
0.000105146
3.84674e-07
0.000105006
3.86747e-07
0.000104857
4.14372e-07
0.0001047
4.42e-07
0.000104535
4.62701e-07
0.000104366
4.7704e-07
0.000104193
4.87231e-07
0.000104017
4.95129e-07
0.00010384
5.01884e-07
0.00010366
5.0812e-07
0.000103478
5.14138e-07
0.000103294
5.2007e-07
0.000103107
5.25967e-07
0.000102919
5.31833e-07
0.000102729
5.37611e-07
0.000102537
5.43212e-07
0.000102343
5.48512e-07
0.000102148
5.53372e-07
0.000101951
5.57658e-07
0.000101753
5.61259e-07
0.000101554
5.64085e-07
0.000101354
5.66074e-07
0.000101154
5.67193e-07
0.000100954
5.67431e-07
0.000100754
5.66822e-07
0.000100555
5.65431e-07
0.000100357
5.63351e-07
0.000100159
5.6069e-07
9.99635e-05
5.57567e-07
9.9769e-05
5.54114e-07
9.9576e-05
5.50468e-07
9.93845e-05
5.46765e-07
9.91946e-05
5.43125e-07
9.90062e-05
5.39661e-07
9.88193e-05
5.3648e-07
9.86337e-05
5.33678e-07
9.84494e-05
5.31337e-07
9.82661e-05
5.29526e-07
9.80838e-05
5.28303e-07
9.79021e-05
5.27709e-07
9.77209e-05
5.27771e-07
9.754e-05
5.28512e-07
9.73591e-05
5.29956e-07
9.71781e-05
5.32129e-07
9.69967e-05
5.35064e-07
9.68145e-05
5.38809e-07
9.66313e-05
5.4344e-07
9.64469e-05
5.49066e-07
9.62607e-05
5.55841e-07
9.60723e-05
5.63983e-07
9.58811e-05
5.73779e-07
9.56865e-05
5.85609e-07
9.54876e-05
5.99957e-07
9.52833e-05
6.17438e-07
9.50723e-05
6.38828e-07
9.4853e-05
6.65107e-07
9.46234e-05
6.97508e-07
9.43809e-05
7.37595e-07
9.41224e-05
7.87363e-07
9.3844e-05
8.49375e-07
9.35408e-05
9.26954e-07
9.32067e-05
1.02445e-06
9.2834e-05
1.14764e-06
9.24131e-05
1.30425e-06
9.19319e-05
1.50475e-06
9.13749e-05
1.7635e-06
9.07231e-05
2.10038e-06
8.99533e-05
2.54303e-06
8.90378e-05
3.12988e-06
8.79467e-05
3.91382e-06
8.66535e-05
4.96531e-06
8.51493e-05
6.37168e-06
8.34751e-05
8.2247e-06
8.17922e-05
1.05794e-05
8.05155e-05
1.33225e-05
1.58092e-05
8.03084e-05
0.000113854
7.95047e-07
0.000113511
1.35705e-06
0.00011317
1.28694e-06
0.000112911
9.25912e-07
0.000112721
6.50706e-07
0.000112561
5.44577e-07
0.000112405
5.42493e-07
0.000112244
5.76158e-07
0.000112074
6.11321e-07
0.000111899
6.38164e-07
0.000111719
6.56996e-07
0.000111536
6.7052e-07
0.00011135
6.81086e-07
0.000111161
6.90166e-07
0.000110971
6.98575e-07
0.000110778
7.06703e-07
0.000110584
7.14718e-07
0.000110387
7.22695e-07
0.000110188
7.30627e-07
0.000109988
7.38446e-07
0.000109785
7.46028e-07
0.00010958
7.53209e-07
0.000109374
7.59802e-07
0.000109166
7.65633e-07
0.000108957
7.70547e-07
0.000108747
7.74427e-07
0.000108537
7.7719e-07
0.000108326
7.78785e-07
0.000108115
7.79205e-07
0.000107904
7.78488e-07
0.000107694
7.76724e-07
0.000107484
7.74032e-07
0.000107276
7.70557e-07
0.000107068
7.66459e-07
0.000106862
7.61916e-07
0.000106658
7.57109e-07
0.000106455
7.52217e-07
0.000106254
7.47403e-07
0.000106054
7.42823e-07
0.000105855
7.38616e-07
0.000105658
7.34911e-07
0.000105462
7.31822e-07
0.000105268
7.29439e-07
0.000105074
7.27837e-07
0.000104881
7.27072e-07
0.000104688
7.2718e-07
0.000104496
7.28194e-07
0.000104303
7.30142e-07
0.000104111
7.3306e-07
0.000103918
7.36993e-07
0.000103725
7.42005e-07
0.000103531
7.48194e-07
0.000103335
7.55704e-07
0.000103138
7.64744e-07
0.000102939
7.75598e-07
0.000102737
7.88646e-07
0.000102532
8.04384e-07
0.000102323
8.23445e-07
0.000102108
8.46626e-07
0.000101888
8.7493e-07
0.000101659
9.09608e-07
0.000101421
9.52228e-07
0.000101171
1.00475e-06
0.000100907
1.06966e-06
0.000100624
1.1501e-06
0.00010032
1.25007e-06
9.99885e-05
1.37471e-06
9.96249e-05
1.53071e-06
9.92222e-05
1.72674e-06
9.87729e-05
1.97424e-06
9.82687e-05
2.28825e-06
9.77013e-05
2.68867e-06
9.70638e-05
3.20164e-06
9.63539e-05
3.86106e-06
9.55797e-05
4.70954e-06
9.47697e-05
5.79709e-06
9.39892e-05
7.17407e-06
9.33647e-05
8.87131e-06
9.31105e-05
1.08557e-05
9.35162e-05
1.29391e-05
1.46316e-05
9.4716e-05
0.000121864
9.60118e-07
0.000121538
1.68317e-06
0.000121194
1.63106e-06
0.000120914
1.20561e-06
0.000120698
8.66309e-07
0.000120516
7.27139e-07
0.000120342
7.1644e-07
0.000120165
7.52628e-07
0.000119984
7.93175e-07
0.000119797
8.25005e-07
0.000119606
8.47758e-07
0.000119412
8.64337e-07
0.000119216
8.77434e-07
0.000119017
8.8877e-07
0.000118817
8.99309e-07
0.000118614
9.09518e-07
0.000118409
9.19599e-07
0.000118202
9.29638e-07
0.000117993
9.39625e-07
0.000117782
9.49471e-07
0.000117569
9.59025e-07
0.000117355
9.68086e-07
0.000117138
9.76422e-07
0.00011692
9.83817e-07
0.000116701
9.90079e-07
0.000116481
9.9506e-07
0.00011626
9.98655e-07
0.000116038
1.00081e-06
0.000115817
1.0015e-06
0.000115595
1.00078e-06
0.000115374
9.98756e-07
0.000115154
9.95575e-07
0.000114935
9.91412e-07
0.000114717
9.86466e-07
0.0001145
9.8096e-07
0.000114284
9.75113e-07
0.00011407
9.69147e-07
0.000113857
9.63267e-07
0.000113646
9.57665e-07
0.000113436
9.52517e-07
0.000113227
9.47982e-07
0.000113019
9.44199e-07
0.000112813
9.41281e-07
0.000112608
9.39321e-07
0.000112403
9.38384e-07
0.000112199
9.38518e-07
0.000111995
9.39761e-07
0.000111791
9.42151e-07
0.000111588
9.45729e-07
0.000111384
9.50547e-07
0.00011118
9.56684e-07
0.000110975
9.64263e-07
0.000110769
9.7346e-07
0.000110562
9.84528e-07
0.000110353
9.97812e-07
0.000110142
1.01377e-06
0.000109928
1.03301e-06
0.00010971
1.05628e-06
0.000109488
1.08452e-06
0.000109261
1.11893e-06
0.000109027
1.16095e-06
0.000108784
1.21239e-06
0.000108532
1.27549e-06
0.000108267
1.35303e-06
0.000107988
1.44844e-06
0.000107692
1.56605e-06
0.000107376
1.71125e-06
0.000107036
1.89083e-06
0.000106671
2.11332e-06
0.000106277
2.38951e-06
0.000105855
2.73288e-06
0.000105405
3.16023e-06
0.000104937
3.69208e-06
0.000104468
4.35266e-06
0.000104032
5.16879e-06
0.000103686
6.16627e-06
0.000103522
7.36127e-06
0.000103674
8.7432e-06
0.000104308
1.02448e-05
0.000105573
1.16986e-05
1.27961e-05
0.000107432
0.00013044
1.09674e-06
0.00013014
1.98308e-06
0.000129798
1.97292e-06
0.000129499
1.50509e-06
0.000129255
1.10957e-06
0.000129047
9.35264e-07
0.000128853
9.10935e-07
0.00012866
9.45317e-07
0.000128465
9.88432e-07
0.000128266
1.02366e-06
0.000128065
1.04949e-06
0.00012786
1.06868e-06
0.000127654
1.08406e-06
0.000127445
1.0975e-06
0.000127234
1.11006e-06
0.000127021
1.12226e-06
0.000126807
1.13434e-06
0.00012659
1.14638e-06
0.000126371
1.15836e-06
0.000126151
1.17017e-06
0.000125928
1.18165e-06
0.000125704
1.19255e-06
0.000125478
1.20261e-06
0.00012525
1.21156e-06
0.000125022
1.21919e-06
0.000124792
1.22531e-06
0.000124561
1.22981e-06
0.00012433
1.2326e-06
0.000124099
1.23368e-06
0.000123867
1.2331e-06
0.000123636
1.23097e-06
0.000123406
1.22747e-06
0.000123176
1.2228e-06
0.000122947
1.21719e-06
0.000122719
1.21091e-06
0.000122493
1.2042e-06
0.000122267
1.19733e-06
0.000122043
1.19055e-06
0.000121821
1.18406e-06
0.000121599
1.17809e-06
0.000121379
1.17283e-06
0.00012116
1.16842e-06
0.000120942
1.16501e-06
0.000120725
1.1627e-06
0.000120509
1.16156e-06
0.000120294
1.16166e-06
0.000120079
1.16303e-06
0.000119864
1.16572e-06
0.00011965
1.16978e-06
0.000119436
1.17525e-06
0.000119221
1.18224e-06
0.000119006
1.19089e-06
0.000118791
1.20138e-06
0.000118575
1.21403e-06
0.000118358
1.22921e-06
0.000118139
1.24745e-06
0.000117918
1.26943e-06
0.000117695
1.29598e-06
0.000117468
1.32817e-06
0.000117237
1.36727e-06
0.000117001
1.41486e-06
0.00011676
1.47287e-06
0.000116511
1.54364e-06
0.000116254
1.63e-06
0.000115988
1.73541e-06
0.000115711
1.86406e-06
0.000115423
2.02104e-06
0.000115123
2.21251e-06
0.000114813
2.44587e-06
0.000114496
2.72996e-06
0.000114177
3.07518e-06
0.000113867
3.49344e-06
0.000113585
3.99785e-06
0.00011336
4.60182e-06
0.000113237
5.31706e-06
0.000113278
6.14976e-06
0.00011357
7.09384e-06
0.000114218
8.12009e-06
0.000115327
9.16129e-06
0.000116954
1.00969e-05
1.07514e-05
0.000119024
0.000139617
1.20242e-06
0.00013935
2.25051e-06
0.000139016
2.30711e-06
0.000138699
1.82169e-06
0.000138428
1.38047e-06
0.000138193
1.17023e-06
0.000137977
1.12743e-06
0.000137767
1.15536e-06
0.000137557
1.19783e-06
0.000137346
1.23453e-06
0.000137133
1.26235e-06
0.000136919
1.28354e-06
0.000136702
1.30084e-06
0.000136483
1.31614e-06
0.000136263
1.33055e-06
0.00013604
1.34462e-06
0.000135816
1.35856e-06
0.00013559
1.37248e-06
0.000135362
1.38636e-06
0.000135132
1.40005e-06
0.000134901
1.41337e-06
0.000134668
1.42604e-06
0.000134433
1.43776e-06
0.000134196
1.44824e-06
0.000133959
1.45723e-06
0.00013372
1.46453e-06
0.00013348
1.46999e-06
0.00013324
1.47352e-06
0.000132999
1.47512e-06
0.000132759
1.47484e-06
0.000132518
1.4728e-06
0.000132278
1.46919e-06
0.000132038
1.46424e-06
0.000131799
1.45821e-06
0.000131561
1.45138e-06
0.000131324
1.44405e-06
0.000131087
1.4365e-06
0.000130853
1.429e-06
0.000130619
1.42181e-06
0.000130386
1.41517e-06
0.000130155
1.40927e-06
0.000129924
1.40432e-06
0.000129695
1.40044e-06
0.000129467
1.39776e-06
0.000129239
1.39636e-06
0.000129013
1.3963e-06
0.000128787
1.39763e-06
0.000128562
1.40038e-06
0.000128338
1.40462e-06
0.000128114
1.41039e-06
0.00012789
1.4178e-06
0.000127666
1.42699e-06
0.000127443
1.43818e-06
0.00012722
1.45169e-06
0.000126996
1.46794e-06
0.000126772
1.48749e-06
0.000126547
1.51105e-06
0.00012632
1.53951e-06
0.000126092
1.57395e-06
0.000125863
1.6157e-06
0.000125631
1.66633e-06
0.000125396
1.72776e-06
0.000125158
1.80223e-06
0.000124917
1.89242e-06
0.000124673
2.00147e-06
0.000124426
2.13308e-06
0.000124179
2.29154e-06
0.000123933
2.48179e-06
0.000123693
2.70944e-06
0.000123467
2.98071e-06
0.000123265
3.30221e-06
0.000123103
3.68064e-06
0.000123004
4.12205e-06
0.000123001
4.6307e-06
0.000123137
5.2072e-06
0.000123467
5.84566e-06
0.000124057
6.5297e-06
0.000124977
7.22719e-06
0.00012628
7.88501e-06
0.000127977
8.42656e-06
8.75871e-06
0.000129996
0.000149434
1.27817e-06
0.000149202
2.48299e-06
0.000148879
2.62923e-06
0.00014855
2.15132e-06
0.000148253
1.67679e-06
0.000147992
1.43153e-06
0.000147753
1.36631e-06
0.000147525
1.38338e-06
0.000147301
1.42189e-06
0.000147078
1.45794e-06
0.000146854
1.48649e-06
0.000146628
1.50893e-06
0.000146401
1.52768e-06
0.000146173
1.54453e-06
0.000145943
1.56055e-06
0.000145711
1.57627e-06
0.000145478
1.59192e-06
0.000145243
1.60758e-06
0.000145006
1.6232e-06
0.000144768
1.63864e-06
0.000144528
1.65368e-06
0.000144286
1.66802e-06
0.000144043
1.68133e-06
0.000143798
1.69329e-06
0.000143552
1.70363e-06
0.000143305
1.71213e-06
0.000143057
1.71861e-06
0.000142808
1.723e-06
0.000142559
1.72526e-06
0.000142309
1.72546e-06
0.000142059
1.72372e-06
0.00014181
1.72024e-06
0.000141561
1.71527e-06
0.000141312
1.70908e-06
0.000141064
1.70199e-06
0.000140816
1.69429e-06
0.00014057
1.6863e-06
0.000140324
1.67831e-06
0.00014008
1.67061e-06
0.000139836
1.66343e-06
0.000139594
1.65702e-06
0.000139352
1.65157e-06
0.000139112
1.64722e-06
0.000138873
1.64411e-06
0.000138635
1.64231e-06
0.000138398
1.6419e-06
0.000138162
1.64291e-06
0.000137927
1.64539e-06
0.000137693
1.64937e-06
0.000137461
1.65492e-06
0.000137229
1.66213e-06
0.000136998
1.67114e-06
0.000136768
1.68219e-06
0.00013654
1.69558e-06
0.000136312
1.71174e-06
0.000136085
1.73125e-06
0.000135858
1.7548e-06
0.000135633
1.78327e-06
0.000135408
1.81772e-06
0.000135184
1.85941e-06
0.000134961
1.90982e-06
0.00013474
1.97068e-06
0.00013452
2.04399e-06
0.000134303
2.13203e-06
0.00013409
2.23741e-06
0.000133884
2.363e-06
0.000133688
2.51201e-06
0.000133507
2.68785e-06
0.000133348
2.89404e-06
0.00013322
3.13405e-06
0.000133138
3.41094e-06
0.000133118
3.72691e-06
0.000133185
4.08258e-06
0.000133367
4.476e-06
0.0001337
4.90144e-06
0.000134226
5.34771e-06
0.000134987
5.79647e-06
0.000136022
6.22054e-06
0.000137352
6.5832e-06
0.000138967
6.83996e-06
6.94477e-06
0.000140809
0.000159933
1.32771e-06
0.000159734
2.6813e-06
0.000159427
2.93625e-06
0.000159089
2.48916e-06
0.000158772
1.99468e-06
0.000158486
1.71713e-06
0.000158225
1.62694e-06
0.000157979
1.62942e-06
0.00015774
1.66086e-06
0.000157504
1.69412e-06
0.000157269
1.72203e-06
0.000157033
1.74486e-06
0.000156796
1.76449e-06
0.000156558
1.78249e-06
0.000156319
1.79982e-06
0.000156078
1.81696e-06
0.000155836
1.83411e-06
0.000155592
1.85132e-06
0.000155347
1.86853e-06
0.0001551
1.88557e-06
0.000154852
1.90219e-06
0.000154602
1.91808e-06
0.000154351
1.93288e-06
0.000154098
1.94627e-06
0.000153844
1.95793e-06
0.000153589
1.96764e-06
0.000153333
1.97521e-06
0.000153076
1.98055e-06
0.000152819
1.98362e-06
0.000152561
1.98449e-06
0.000152303
1.98327e-06
0.000152045
1.98018e-06
0.000151786
1.97546e-06
0.000151528
1.96939e-06
0.000151271
1.9623e-06
0.000151013
1.95451e-06
0.000150757
1.94632e-06
0.000150501
1.93807e-06
0.000150246
1.93002e-06
0.000149992
1.92245e-06
0.000149739
1.9156e-06
0.000149487
1.90966e-06
0.000149236
1.90479e-06
0.000148987
1.90111e-06
0.000148739
1.89871e-06
0.000148492
1.89765e-06
0.000148247
1.89797e-06
0.000148004
1.89968e-06
0.000147762
1.90283e-06
0.000147522
1.90745e-06
0.000147284
1.91364e-06
0.000147048
1.92152e-06
0.000146814
1.9313e-06
0.000146582
1.94328e-06
0.000146352
1.95787e-06
0.000146126
1.97559e-06
0.000145902
1.99711e-06
0.000145681
2.02323e-06
0.000145465
2.0549e-06
0.000145252
2.09324e-06
0.000145044
2.13952e-06
0.000144842
2.19518e-06
0.000144647
2.26182e-06
0.000144462
2.34118e-06
0.000144289
2.43515e-06
0.000144131
2.54566e-06
0.000143995
2.67467e-06
0.000143885
2.82403e-06
0.00014381
2.99533e-06
0.000143782
3.18961e-06
0.000143814
3.40713e-06
0.000143922
3.64686e-06
0.000144127
3.90603e-06
0.000144453
4.17946e-06
0.000144924
4.45893e-06
0.000145569
4.73259e-06
0.00014641
4.98452e-06
0.000147466
5.19487e-06
0.000148738
5.34075e-06
0.00015021
5.39851e-06
5.34764e-06
0.000151837
0.00017116
1.35613e-06
0.000170993
2.84853e-06
0.000170702
3.22645e-06
0.000170361
2.83041e-06
0.000170026
2.3294e-06
0.00016972
2.02398e-06
0.000169439
1.90782e-06
0.000169175
1.89297e-06
0.000168921
1.91469e-06
0.000168672
1.94315e-06
0.000168425
1.96903e-06
0.000168179
1.99131e-06
0.000167932
2.01119e-06
0.000167685
2.02988e-06
0.000167436
2.04816e-06
0.000167187
2.06644e-06
0.000166936
2.08485e-06
0.000166684
2.10341e-06
0.000166431
2.12202e-06
0.000166176
2.14049e-06
0.00016592
2.15855e-06
0.000165662
2.17587e-06
0.000165403
2.19206e-06
0.000165143
2.2068e-06
0.000164882
2.21976e-06
0.000164619
2.23068e-06
0.000164356
2.2394e-06
0.000164091
2.24578e-06
0.000163826
2.24981e-06
0.00016356
2.25152e-06
0.000163294
2.25105e-06
0.000163027
2.24859e-06
0.00016276
2.24437e-06
0.000162493
2.2387e-06
0.000162227
2.23188e-06
0.00016196
2.22423e-06
0.000161694
2.21608e-06
0.000161428
2.20773e-06
0.000161164
2.19948e-06
0.0001609
2.19159e-06
0.000160637
2.18431e-06
0.000160375
2.17782e-06
0.000160115
2.17229e-06
0.000159857
2.16783e-06
0.0001596
2.16451e-06
0.000159345
2.16239e-06
0.000159092
2.16149e-06
0.000158841
2.1618e-06
0.000158592
2.16335e-06
0.000158347
2.16616e-06
0.000158104
2.17028e-06
0.000157865
2.17582e-06
0.000157629
2.18294e-06
0.000157397
2.19192e-06
0.00015717
2.2031e-06
0.000156947
2.21694e-06
0.00015673
2.234e-06
0.000156519
2.25497e-06
0.000156314
2.28063e-06
0.000156118
2.31188e-06
0.000155931
2.3497e-06
0.000155754
2.39515e-06
0.000155592
2.44933e-06
0.000155445
2.5134e-06
0.000155317
2.58843e-06
0.000155214
2.67543e-06
0.000155141
2.7752e-06
0.000155104
2.88822e-06
0.000155114
3.01447e-06
0.000155179
3.15326e-06
0.000155312
3.30295e-06
0.000155528
3.4607e-06
0.000155842
3.62212e-06
0.000156271
3.78108e-06
0.000156832
3.9294e-06
0.000157538
4.05694e-06
0.000158402
4.15177e-06
0.000159428
4.20094e-06
0.000160608
4.19159e-06
0.000161926
4.11273e-06
3.95729e-06
0.000163348
0.000183166
1.36882e-06
0.000183026
2.98906e-06
0.000182753
3.49938e-06
0.000182412
3.17085e-06
0.000182066
2.67607e-06
0.000181741
2.34844e-06
0.000181442
2.20689e-06
0.000181162
2.17308e-06
0.000180894
2.18302e-06
0.000180632
2.2049e-06
0.000180374
2.22743e-06
0.000180117
2.24822e-06
0.00017986
2.26766e-06
0.000179604
2.28652e-06
0.000179347
2.30538e-06
0.000179089
2.32448e-06
0.00017883
2.3439e-06
0.000178569
2.36359e-06
0.000178308
2.3834e-06
0.000178046
2.40314e-06
0.000177782
2.42248e-06
0.000177517
2.44109e-06
0.000177251
2.45858e-06
0.000176983
2.4746e-06
0.000176715
2.48881e-06
0.000176445
2.50097e-06
0.000176174
2.51087e-06
0.000175902
2.5184e-06
0.00017563
2.5235e-06
0.000175356
2.52623e-06
0.000175082
2.5267e-06
0.000174807
2.52507e-06
0.000174532
2.5216e-06
0.000174257
2.51654e-06
0.000173982
2.5102e-06
0.000173706
2.50289e-06
0.000173431
2.49492e-06
0.000173157
2.48659e-06
0.000172883
2.4782e-06
0.00017261
2.46999e-06
0.000172338
2.4622e-06
0.000172068
2.45501e-06
0.0001718
2.44858e-06
0.000171533
2.44299e-06
0.000171268
2.43832e-06
0.000171006
2.43458e-06
0.000170747
2.43177e-06
0.000170491
2.42988e-06
0.000170238
2.42888e-06
0.00016999
2.42876e-06
0.000169745
2.42954e-06
0.000169505
2.43127e-06
0.000169271
2.43409e-06
0.000169043
2.43817e-06
0.00016882
2.4438e-06
0.000168606
2.45133e-06
0.000168399
2.46119e-06
0.000168202
2.4739e-06
0.000168015
2.49002e-06
0.00016784
2.51018e-06
0.000167679
2.53503e-06
0.000167534
2.56521e-06
0.000167407
2.60132e-06
0.000167304
2.64388e-06
0.000167226
2.69328e-06
0.00016718
2.74967e-06
0.000167171
2.81291e-06
0.000167206
2.88244e-06
0.000167293
2.95718e-06
0.000167441
3.03535e-06
0.000167661
3.11436e-06
0.000167962
3.19065e-06
0.000168356
3.2596e-06
0.000168854
3.31544e-06
0.000169464
3.35136e-06
0.000170194
3.35972e-06
0.000171046
3.33256e-06
0.000172018
3.26231e-06
0.0001731
3.14282e-06
0.000174276
2.97046e-06
2.74507e-06
0.000175521
0.000196008
1.37077e-06
0.000195889
3.10778e-06
0.000195633
3.75557e-06
0.000195297
3.50722e-06
0.000194943
3.03017e-06
0.000194604
2.68675e-06
0.000194289
2.52172e-06
0.000193994
2.46842e-06
0.000193712
2.46518e-06
0.000193438
2.47906e-06
0.000193168
2.49704e-06
0.000192901
2.51541e-06
0.000192635
2.53371e-06
0.000192369
2.55223e-06
0.000192103
2.57124e-06
0.000191837
2.59084e-06
0.00019157
2.611e-06
0.000191302
2.63159e-06
0.000191033
2.65242e-06
0.000190763
2.67325e-06
0.000190492
2.69374e-06
0.00019022
2.71352e-06
0.000189947
2.7322e-06
0.000189672
2.74943e-06
0.000189397
2.76487e-06
0.00018912
2.77825e-06
0.000188842
2.78938e-06
0.000188563
2.79812e-06
0.000188284
2.80441e-06
0.000188003
2.80829e-06
0.000187721
2.80984e-06
0.000187439
2.80922e-06
0.000187156
2.80665e-06
0.000186873
2.80236e-06
0.00018659
2.79663e-06
0.000186306
2.78977e-06
0.000186023
2.78204e-06
0.00018574
2.77376e-06
0.000185459
2.76517e-06
0.000185178
2.75652e-06
0.000184899
2.74803e-06
0.000184621
2.73987e-06
0.000184346
2.73215e-06
0.000184073
2.72496e-06
0.000183802
2.71833e-06
0.000183535
2.71225e-06
0.000183272
2.70669e-06
0.000183013
2.70159e-06
0.000182758
2.69688e-06
0.000182509
2.69251e-06
0.000182266
2.68844e-06
0.000182029
2.68468e-06
0.000181799
2.68127e-06
0.000181577
2.67834e-06
0.000181365
2.67604e-06
0.000181162
2.6746e-06
0.000180971
2.6743e-06
0.000180792
2.67546e-06
0.000180627
2.67841e-06
0.000180478
2.68348e-06
0.000180347
2.69097e-06
0.000180238
2.70113e-06
0.000180152
2.71409e-06
0.000180094
2.72983e-06
0.000180068
2.74815e-06
0.000180078
2.76858e-06
0.000180131
2.7903e-06
0.000180232
2.81213e-06
0.000180388
2.83238e-06
0.000180606
2.84883e-06
0.000180894
2.85864e-06
0.000181259
2.85833e-06
0.000181708
2.84379e-06
0.000182247
2.81032e-06
0.00018288
2.75284e-06
0.000183607
2.66621e-06
0.000184429
2.54565e-06
0.000185338
2.38746e-06
0.000186326
2.18967e-06
0.000187379
1.95279e-06
1.68017e-06
0.000188479
0.000209744
1.36617e-06
0.000209642
3.20957e-06
0.000209401
3.99632e-06
0.000209071
3.8372e-06
0.000208714
3.3878e-06
0.000208365
3.03528e-06
0.000208037
2.84969e-06
0.000207728
2.77735e-06
0.000207433
2.76024e-06
0.000207147
2.76508e-06
0.000206867
2.77751e-06
0.00020659
2.79262e-06
0.000206314
2.80911e-06
0.00020604
2.82676e-06
0.000205766
2.84551e-06
0.000205491
2.86527e-06
0.000205216
2.88589e-06
0.000204941
2.90716e-06
0.000204665
2.92882e-06
0.000204387
2.95057e-06
0.000204109
2.97206e-06
0.00020383
2.99289e-06
0.00020355
3.01268e-06
0.000203269
3.03106e-06
0.000202986
3.04769e-06
0.000202703
3.0623e-06
0.000202418
3.07468e-06
0.000202133
3.08468e-06
0.000201846
3.09223e-06
0.000201559
3.09734e-06
0.00020127
3.10006e-06
0.000200981
3.10054e-06
0.000200691
3.09893e-06
0.0002004
3.09547e-06
0.00020011
3.09039e-06
0.000199819
3.08395e-06
0.000199529
3.07642e-06
0.000199239
3.06805e-06
0.000198951
3.05909e-06
0.000198664
3.04976e-06
0.000198378
3.04024e-06
0.000198095
3.03067e-06
0.000197815
3.02114e-06
0.000197537
3.01171e-06
0.000197263
3.00235e-06
0.000196994
2.99303e-06
0.000196729
2.98367e-06
0.000196469
2.97415e-06
0.000196216
2.96438e-06
0.000195969
2.95423e-06
0.00019573
2.94361e-06
0.0001955
2.93245e-06
0.000195279
2.92074e-06
0.000195068
2.90847e-06
0.000194869
2.89571e-06
0.000194682
2.88255e-06
0.00019451
2.86908e-06
0.000194354
2.85542e-06
0.000194215
2.84167e-06
0.000194096
2.82789e-06
0.000193999
2.81406e-06
0.000193928
2.80008e-06
0.000193884
2.78569e-06
0.000193873
2.77049e-06
0.000193897
2.75385e-06
0.000193961
2.73489e-06
0.00019407
2.71245e-06
0.000194229
2.68504e-06
0.000194444
2.65081e-06
0.000194718
2.60752e-06
0.000195058
2.55258e-06
0.000195468
2.48302e-06
0.00019595
2.39556e-06
0.000196509
2.28679e-06
0.000197144
2.15326e-06
0.000197854
1.99187e-06
0.000198636
1.80021e-06
0.000199482
1.57711e-06
0.000200385
1.32317e-06
0.000201333
1.04106e-06
7.3593e-07
0.000202314
0.000224438
1.35838e-06
0.000224349
3.29897e-06
0.000224122
4.22341e-06
0.0002238
4.15941e-06
0.000223442
3.74577e-06
0.000223086
3.39069e-06
0.000222748
3.18813e-06
0.000222427
3.09801e-06
0.000222121
3.06699e-06
0.000221823
3.06217e-06
0.000221533
3.06828e-06
0.000221246
3.07941e-06
0.000220962
3.09348e-06
0.000220679
3.10975e-06
0.000220396
3.12784e-06
0.000220114
3.14744e-06
0.000219832
3.16826e-06
0.000219549
3.18998e-06
0.000219266
3.21228e-06
0.000218982
3.2348e-06
0.000218697
3.25717e-06
0.000218411
3.27895e-06
0.000218124
3.29977e-06
0.000217836
3.31924e-06
0.000217548
3.33702e-06
0.000217258
3.35284e-06
0.000216967
3.36646e-06
0.000216675
3.37773e-06
0.000216382
3.38655e-06
0.000216087
3.3929e-06
0.000215792
3.3968e-06
0.000215497
3.39836e-06
0.0002152
3.39769e-06
0.000214904
3.39498e-06
0.000214607
3.39044e-06
0.00021431
3.38428e-06
0.000214014
3.37674e-06
0.000213719
3.36804e-06
0.000213426
3.35838e-06
0.000213134
3.34796e-06
0.000212844
3.33691e-06
0.000212557
3.32534e-06
0.000212274
3.31331e-06
0.000211995
3.3008e-06
0.00021172
3.28777e-06
0.00021145
3.27412e-06
0.000211187
3.25972e-06
0.00021093
3.24441e-06
0.000210681
3.22803e-06
0.000210441
3.21041e-06
0.00021021
3.19138e-06
0.000209989
3.17081e-06
0.00020978
3.14859e-06
0.000209584
3.12463e-06
0.000209402
3.09886e-06
0.000209236
3.07123e-06
0.000209087
3.04169e-06
0.000208956
3.01015e-06
0.000208847
2.97652e-06
0.000208761
2.9406e-06
0.0002087
2.90214e-06
0.000208668
2.86077e-06
0.000208667
2.81597e-06
0.000208701
2.76706e-06
0.000208772
2.71321e-06
0.000208886
2.65334e-06
0.000209044
2.58618e-06
0.000209252
2.51023e-06
0.000209513
2.42376e-06
0.000209831
2.32482e-06
0.000210207
2.21128e-06
0.000210645
2.08086e-06
0.000211145
1.93122e-06
0.000211708
1.76007e-06
0.000212333
1.56536e-06
0.000213016
1.34549e-06
0.000213754
1.0997e-06
0.000214541
8.28351e-07
0.000215368
5.33557e-07
0.000216228
2.19386e-07
-1.08201e-07
0.00021711
0.000240159
1.34998e-06
0.000240078
3.38004e-06
0.000239863
4.43888e-06
0.000239549
4.47318e-06
0.000239193
4.10162e-06
0.000238834
3.74998e-06
0.000238488
3.5344e-06
0.000238157
3.42838e-06
0.00023784
3.38396e-06
0.000237533
3.36927e-06
0.000237233
3.36858e-06
0.000236937
3.37518e-06
0.000236644
3.38632e-06
0.000236353
3.40076e-06
0.000236063
3.41782e-06
0.000235774
3.43695e-06
0.000235485
3.45771e-06
0.000235195
3.47968e-06
0.000234905
3.50244e-06
0.000234614
3.52559e-06
0.000234323
3.5487e-06
0.000234031
3.57134e-06
0.000233738
3.5931e-06
0.000233444
3.6136e-06
0.000233149
3.63249e-06
0.000232853
3.64946e-06
0.000232556
3.66429e-06
0.000232258
3.67678e-06
0.000231959
3.68681e-06
0.000231659
3.69432e-06
0.000231358
3.6993e-06
0.000231057
3.7018e-06
0.000230755
3.7019e-06
0.000230453
3.69974e-06
0.000230152
3.69549e-06
0.000229851
3.68931e-06
0.000229551
3.68141e-06
0.000229252
3.67195e-06
0.000228955
3.6611e-06
0.00022866
3.64901e-06
0.000228369
3.63577e-06
0.000228081
3.62144e-06
0.000227797
3.60601e-06
0.000227519
3.58944e-06
0.000227246
3.57161e-06
0.000226979
3.55237e-06
0.00022672
3.53155e-06
0.00022647
3.50893e-06
0.000226229
3.48428e-06
0.000225998
3.45738e-06
0.000225779
3.428e-06
0.000225572
3.39595e-06
0.000225379
3.36102e-06
0.000225202
3.32303e-06
0.000225041
3.28181e-06
0.000224898
3.23718e-06
0.000224775
3.18894e-06
0.000224673
3.13686e-06
0.000224595
3.08067e-06
0.000224543
3.02001e-06
0.000224519
2.95445e-06
0.000224526
2.88344e-06
0.000224566
2.80634e-06
0.000224642
2.72236e-06
0.000224756
2.63057e-06
0.000224912
2.52991e-06
0.000225113
2.41919e-06
0.00022536
2.29707e-06
0.000225657
2.16211e-06
0.000226005
2.01278e-06
0.000226405
1.84751e-06
0.000226857
1.66472e-06
0.000227363
1.46288e-06
0.00022792
1.24066e-06
0.000228526
9.97036e-07
0.000229179
7.31471e-07
0.000229872
4.44512e-07
0.000230603
1.36975e-07
0.000231363
-1.87459e-07
0.000232146
-5.24385e-07
-8.67576e-07
0.000232944
0.000256979
1.34282e-06
0.000256903
3.45615e-06
0.000256697
4.64486e-06
0.000256392
4.7784e-06
0.00025604
4.45348e-06
0.00025568
4.11053e-06
0.000255328
3.88591e-06
0.00025499
3.76631e-06
0.000254665
3.70946e-06
0.000254349
3.6851e-06