/*--------------------------------*- C++ -*----------------------------------*\
| =========                 |                                                 |
| \\      /  F ield         | OpenFOAM: The Open Source CFD Toolbox           |
|  \\    /   O peration     | Version:  5.x                                   |
|   \\  /    A nd           | Web:      www.OpenFOAM.org                      |
|    \\/     M anipulation  |                                                 |
\*---------------------------------------------------------------------------*/
FoamFile
{
    version     2.0;
    format      ascii;
    class       volVectorField;
    location    "0.2";
    object      U;
}
// * * * * * * * * * * * * * * * * * * * * * * * * * * * * * * * * * * * * * //

dimensions      [0 1 -1 0 0 0 0];

internalField   nonuniform List<vector> 
12013
(
(0.0999331 2.03642e-05 0)
(0.0996276 3.3666e-05 0)
(0.0992508 3.14275e-05 0)
(0.0989797 2.20621e-05 0)
(0.0988072 1.52299e-05 0)
(0.0986791 1.29524e-05 0)
(0.0985567 1.34376e-05 0)
(0.0984249 1.48476e-05 0)
(0.0982819 1.62642e-05 0)
(0.0981302 1.74318e-05 0)
(0.0979724 1.83699e-05 0)
(0.0978105 1.91621e-05 0)
(0.0976456 1.98799e-05 0)
(0.0974782 2.05682e-05 0)
(0.0973087 2.12533e-05 0)
(0.0971371 2.19472e-05 0)
(0.0969635 2.26571e-05 0)
(0.0967878 2.33847e-05 0)
(0.0966102 2.41311e-05 0)
(0.0964306 2.48937e-05 0)
(0.096249 2.56688e-05 0)
(0.0960656 2.64499e-05 0)
(0.0958805 2.72299e-05 0)
(0.095694 2.80008e-05 0)
(0.0955061 2.87552e-05 0)
(0.0953172 2.94872e-05 0)
(0.0951275 3.01909e-05 0)
(0.0949375 3.08624e-05 0)
(0.0947474 3.14981e-05 0)
(0.0945575 3.20979e-05 0)
(0.0943681 3.26623e-05 0)
(0.0941796 3.3195e-05 0)
(0.0939922 3.36997e-05 0)
(0.093806 3.41827e-05 0)
(0.0936213 3.46501e-05 0)
(0.0934381 3.51104e-05 0)
(0.0932566 3.55709e-05 0)
(0.0930767 3.60402e-05 0)
(0.0928985 3.6527e-05 0)
(0.092722 3.70386e-05 0)
(0.092547 3.75836e-05 0)
(0.0923734 3.81695e-05 0)
(0.0922011 3.88039e-05 0)
(0.09203 3.94942e-05 0)
(0.0918598 4.02464e-05 0)
(0.0916904 4.1065e-05 0)
(0.0915216 4.19564e-05 0)
(0.0913531 4.29263e-05 0)
(0.0911848 4.39806e-05 0)
(0.0910164 4.51269e-05 0)
(0.0908477 4.63738e-05 0)
(0.0906784 4.77336e-05 0)
(0.0905082 4.92227e-05 0)
(0.0903367 5.08619e-05 0)
(0.0901636 5.26808e-05 0)
(0.0899883 5.47175e-05 0)
(0.0898102 5.70232e-05 0)
(0.0896285 5.96632e-05 0)
(0.0894422 6.27229e-05 0)
(0.0892502 6.63117e-05 0)
(0.0890509 7.05731e-05 0)
(0.0888422 7.56899e-05 0)
(0.0886219 8.19031e-05 0)
(0.0883868 8.95289e-05 0)
(0.0881329 9.89863e-05 0)
(0.0878552 0.000110838 0)
(0.0875471 0.00012585 0)
(0.0872001 0.00014508 0)
(0.0868029 0.000170013 0)
(0.0863404 0.000202777 0)
(0.0857921 0.000246473 0)
(0.0851297 0.000305727 0)
(0.0843133 0.000387578 0)
(0.0832854 0.000502957 0)
(0.0819622 0.000669193 0)
(0.0802188 0.000914245 0)
(0.0778661 0.00128402 0)
(0.0745996 0.00185729 0)
(0.069941 0.0027917 0)
(0.0633122 0.00452248 0)
(0.0557599 0.00899436 0)
(0.0999393 6.18253e-05 0)
(0.0996411 0.000102775 0)
(0.0992697 9.62657e-05 0)
(0.0989987 6.78188e-05 0)
(0.098824 4.69661e-05 0)
(0.0986933 3.996e-05 0)
(0.0985691 4.13847e-05 0)
(0.0984363 4.56479e-05 0)
(0.0982929 4.99495e-05 0)
(0.0981411 5.35035e-05 0)
(0.0979836 5.6365e-05 0)
(0.0978221 5.87848e-05 0)
(0.0976576 6.09799e-05 0)
(0.0974908 6.30872e-05 0)
(0.0973218 6.51847e-05 0)
(0.0971507 6.73108e-05 0)
(0.0969777 6.9484e-05 0)
(0.0968027 7.1713e-05 0)
(0.0966257 7.3999e-05 0)
(0.0964468 7.63355e-05 0)
(0.0962659 7.87095e-05 0)
(0.0960833 8.11028e-05 0)
(0.095899 8.34921e-05 0)
(0.0957132 8.58546e-05 0)
(0.0955261 8.81675e-05 0)
(0.095338 9.04119e-05 0)
(0.0951491 9.25707e-05 0)
(0.0949599 9.46311e-05 0)
(0.0947705 9.65832e-05 0)
(0.0945814 9.84246e-05 0)
(0.0943928 0.000100159 0)
(0.094205 0.000101797 0)
(0.0940182 0.000103351 0)
(0.0938326 0.000104838 0)
(0.0936485 0.000106277 0)
(0.0934658 0.000107694 0)
(0.0932848 0.000109114 0)
(0.0931054 0.000110561 0)
(0.0929276 0.000112061 0)
(0.0927514 0.000113636 0)
(0.0925767 0.000115314 0)
(0.0924035 0.000117118 0)
(0.0922314 0.000119071 0)
(0.0920605 0.000121194 0)
(0.0918906 0.000123506 0)
(0.0917214 0.000126023 0)
(0.0915527 0.000128762 0)
(0.0913844 0.00013174 0)
(0.0912163 0.000134977 0)
(0.0910481 0.000138495 0)
(0.0908795 0.000142323 0)
(0.0907104 0.000146494 0)
(0.0905404 0.000151059 0)
(0.0903692 0.000156084 0)
(0.0901963 0.000161655 0)
(0.0900213 0.000167891 0)
(0.0898436 0.000174945 0)
(0.0896625 0.000183017 0)
(0.0894769 0.000192364 0)
(0.0892857 0.000203318 0)
(0.0890874 0.000216309 0)
(0.0888803 0.000231891 0)
(0.0886619 0.000250785 0)
(0.0884294 0.000273937 0)
(0.088179 0.0003026 0)
(0.0879061 0.000338445 0)
(0.0876046 0.000383736 0)
(0.0872669 0.000441581 0)
(0.0868829 0.000516314 0)
(0.0864395 0.000614079 0)
(0.085919 0.000743751 0)
(0.0852983 0.000918377 0)
(0.0845454 0.00115747 0)
(0.083617 0.00149071 0)
(0.0824535 0.00196375 0)
(0.080974 0.00264726 0)
(0.0790701 0.00364984 0)
(0.0765961 0.00513522 0)
(0.0733864 0.00734377 0)
(0.0694868 0.0105554 0)
(0.0662004 0.0146479 0)
(0.0999471 0.000103398 0)
(0.0996679 0.00017427 0)
(0.0993104 0.000164609 0)
(0.0990405 0.000117161 0)
(0.0988604 8.18535e-05 0)
(0.0987237 6.97046e-05 0)
(0.0985953 7.18366e-05 0)
(0.0984602 7.88727e-05 0)
(0.098316 8.60643e-05 0)
(0.0981643 9.2051e-05 0)
(0.0980073 9.68998e-05 0)
(0.0978466 0.000101018 0)
(0.0976831 0.000104765 0)
(0.0975174 0.000108368 0)
(0.0973495 0.000111956 0)
(0.0971797 0.000115596 0)
(0.0970079 0.000119316 0)
(0.0968343 0.000123133 0)
(0.0966587 0.000127046 0)
(0.0964813 0.000131047 0)
(0.096302 0.000135113 0)
(0.0961209 0.000139212 0)
(0.0959383 0.000143306 0)
(0.0957541 0.000147356 0)
(0.0955687 0.000151324 0)
(0.0953823 0.000155177 0)
(0.0951952 0.000158886 0)
(0.0950077 0.000162429 0)
(0.09482 0.000165791 0)
(0.0946325 0.000168966 0)
(0.0944455 0.000171962 0)
(0.0942592 0.000174794 0)
(0.0940738 0.000177484 0)
(0.0938896 0.000180061 0)
(0.0937067 0.000182559 0)
(0.0935253 0.00018502 0)
(0.0933454 0.000187488 0)
(0.093167 0.000190002 0)
(0.0929901 0.000192605 0)
(0.0928148 0.00019534 0)
(0.0926409 0.00019825 0)
(0.0924683 0.000201375 0)
(0.092297 0.000204754 0)
(0.0921267 0.000208423 0)
(0.0919573 0.000212414 0)
(0.0917887 0.000216756 0)
(0.0916206 0.000221475 0)
(0.0914529 0.000226602 0)
(0.0912853 0.000232169 0)
(0.0911176 0.000238215 0)
(0.0909497 0.000244786 0)
(0.0907813 0.000251942 0)
(0.090612 0.000259767 0)
(0.0904416 0.000268371 0)
(0.0902697 0.000277903 0)
(0.0900958 0.000288558 0)
(0.0899193 0.000300595 0)
(0.0897396 0.000314348 0)
(0.0895558 0.000330246 0)
(0.0893668 0.000348842 0)
(0.0891712 0.000370846 0)
(0.0889673 0.000397174 0)
(0.0887532 0.00042901 0)
(0.088526 0.000467896 0)
(0.0882827 0.000515858 0)
(0.0880192 0.00057558 0)
(0.0877304 0.000650656 0)
(0.0874098 0.000745959 0)
(0.0870496 0.000868178 0)
(0.0866396 0.00102663 0)
(0.0861671 0.00123445 0)
(0.0856162 0.00151043 0)
(0.084967 0.00188174 0)
(0.0841958 0.00238788 0)
(0.0832749 0.00308633 0)
(0.0821767 0.00405943 0)
(0.0808813 0.0054204 0)
(0.079393 0.00731176 0)
(0.0777842 0.00988058 0)
(0.0763272 0.0131543 0)
(0.0757358 0.0165439 0)
(0.0999565 0.000143033 0)
(0.0997069 0.000245959 0)
(0.0993715 0.000235493 0)
(0.0991041 0.000170576 0)
(0.0989162 0.000120945 0)
(0.0987705 0.000103144 0)
(0.0986357 0.000105451 0)
(0.0984973 0.000114913 0)
(0.098352 0.000124827 0)
(0.0982005 0.000133195 0)
(0.0980443 0.000140041 0)
(0.0978849 0.000145899 0)
(0.0977229 0.000151253 0)
(0.0975588 0.000156415 0)
(0.0973928 0.000161563 0)
(0.0972248 0.000166786 0)
(0.0970551 0.000172127 0)
(0.0968836 0.000177605 0)
(0.0967102 0.000183224 0)
(0.0965351 0.000188968 0)
(0.0963582 0.000194806 0)
(0.0961796 0.000200695 0)
(0.0959995 0.00020658 0)
(0.095818 0.000212406 0)
(0.0956353 0.000218119 0)
(0.0954516 0.000223673 0)
(0.0952672 0.000229027 0)
(0.0950823 0.000234149 0)
(0.0948973 0.000239019 0)
(0.0947123 0.000243628 0)
(0.0945278 0.000247987 0)
(0.0943439 0.000252116 0)
(0.0941608 0.000256046 0)
(0.0939788 0.000259819 0)
(0.093798 0.000263484 0)
(0.0936184 0.000267098 0)
(0.0934403 0.000270721 0)
(0.0932635 0.000274411 0)
(0.0930882 0.000278231 0)
(0.0929143 0.000282239 0)
(0.0927417 0.000286497 0)
(0.0925704 0.000291061 0)
(0.0924002 0.000295987 0)
(0.0922311 0.000301324 0)
(0.0920628 0.000307119 0)
(0.0918952 0.00031341 0)
(0.0917281 0.000320238 0)
(0.0915615 0.000327644 0)
(0.091395 0.000335675 0)
(0.0912286 0.000344383 0)
(0.091062 0.000353833 0)
(0.0908949 0.000364113 0)
(0.0907272 0.000375338 0)
(0.0905586 0.000387662 0)
(0.0903886 0.000401293 0)
(0.0902169 0.000416507 0)
(0.090043 0.000433661 0)
(0.0898663 0.000453217 0)
(0.0896859 0.000475769 0)
(0.089501 0.000502076 0)
(0.0893103 0.000533109 0)
(0.0891124 0.000570109 0)
(0.0889056 0.00061467 0)
(0.0886877 0.000668853 0)
(0.0884561 0.000735329 0)
(0.0882077 0.000817595 0)
(0.0879386 0.000920263 0)
(0.0876443 0.00104947 0)
(0.0873194 0.00121346 0)
(0.0869577 0.0014234 0)
(0.0865522 0.00169455 0)
(0.0860954 0.00204791 0)
(0.0855803 0.00251237 0)
(0.0850022 0.00312756 0)
(0.0843623 0.00394683 0)
(0.0836743 0.00503918 0)
(0.0829758 0.00648595 0)
(0.0823456 0.00836392 0)
(0.081928 0.0106983 0)
(0.0819586 0.0133457 0)
(0.082725 0.0157369 0)
(0.0999669 0.000178902 0)
(0.0997544 0.000315341 0)
(0.0994482 0.000307749 0)
(0.0991855 0.000228399 0)
(0.0989888 0.000165247 0)
(0.098832 0.000141252 0)
(0.0986894 0.000142915 0)
(0.0985469 0.00015418 0)
(0.0984002 0.00016646 0)
(0.0982489 0.000177043 0)
(0.098094 0.000185833 0)
(0.0979363 0.000193436 0)
(0.0977764 0.00020043 0)
(0.0976145 0.000207196 0)
(0.0974509 0.000213955 0)
(0.0972856 0.000220818 0)
(0.0971186 0.000227838 0)
(0.0969499 0.00023504 0)
(0.0967795 0.000242426 0)
(0.0966075 0.000249978 0)
(0.0964338 0.000257655 0)
(0.0962586 0.000265403 0)
(0.096082 0.000273152 0)
(0.095904 0.00028083 0)
(0.0957249 0.000288371 0)
(0.0955448 0.000295712 0)
(0.0953641 0.000302803 0)
(0.0951828 0.000309603 0)
(0.0950014 0.000316085 0)
(0.0948199 0.000322238 0)
(0.0946388 0.000328073 0)
(0.0944581 0.000333618 0)
(0.0942782 0.000338912 0)
(0.0940991 0.000344006 0)
(0.0939211 0.000348966 0)
(0.0937442 0.000353863 0)
(0.0935685 0.000358772 0)
(0.093394 0.000363772 0)
(0.0932209 0.00036894 0)
(0.093049 0.000374353 0)
(0.0928783 0.000380089 0)
(0.0927087 0.000386223 0)
(0.0925403 0.000392823 0)
(0.0923727 0.000399954 0)
(0.0922061 0.000407673 0)
(0.0920401 0.000416031 0)
(0.0918747 0.00042508 0)
(0.0917098 0.000434873 0)
(0.0915452 0.000445468 0)
(0.0913807 0.000456931 0)
(0.0912161 0.000469347 0)
(0.0910514 0.000482826 0)
(0.0908862 0.000497515 0)
(0.0907204 0.000513609 0)
(0.0905537 0.000531374 0)
(0.0903856 0.000551154 0)
(0.0902158 0.000573399 0)
(0.0900438 0.000598687 0)
(0.0898689 0.000627755 0)
(0.0896903 0.00066154 0)
(0.0895072 0.000701232 0)
(0.0893184 0.000748334 0)
(0.0891226 0.000804764 0)
(0.0889182 0.000872963 0)
(0.0887035 0.000956053 0)
(0.0884764 0.00105805 0)
(0.0882345 0.00118414 0)
(0.0879754 0.00134107 0)
(0.0876967 0.00153761 0)
(0.087396 0.00178527 0)
(0.0870719 0.00209913 0)
(0.086725 0.00249888 0)
(0.0863587 0.00301007 0)
(0.0859829 0.00366513 0)
(0.0856172 0.00450374 0)
(0.0852973 0.0055706 0)
(0.0850825 0.00690761 0)
(0.0850645 0.00853424 0)
(0.08537 0.0104079 0)
(0.0861448 0.0123552 0)
(0.0874777 0.0139847 0)
(0.0999775 0.000209477 0)
(0.0998052 0.000380119 0)
(0.0995328 0.000380113 0)
(0.0992778 0.000290646 0)
(0.0990731 0.000215472 0)
(0.0989051 0.000184826 0)
(0.0987541 0.000184833 0)
(0.0986072 0.00019705 0)
(0.098459 0.000211165 0)
(0.0983081 0.000223689 0)
(0.0981547 0.000234303 0)
(0.0979992 0.000243613 0)
(0.0978418 0.000252251 0)
(0.0976827 0.000260646 0)
(0.0975221 0.000269051 0)
(0.09736 0.000277594 0)
(0.0971963 0.000286336 0)
(0.0970312 0.000295306 0)
(0.0968645 0.000304507 0)
(0.0966963 0.000313915 0)
(0.0965266 0.000323483 0)
(0.0963555 0.000333144 0)
(0.0961831 0.000342815 0)
(0.0960095 0.000352412 0)
(0.0958348 0.000361852 0)
(0.0956592 0.000371062 0)
(0.0954829 0.00037998 0)
(0.0953061 0.000388557 0)
(0.095129 0.000396758 0)
(0.0949519 0.000404573 0)
(0.0947749 0.000412013 0)
(0.0945983 0.000419108 0)
(0.0944222 0.000425906 0)
(0.0942468 0.000432469 0)
(0.0940723 0.000438874 0)
(0.0938987 0.000445207 0)
(0.0937261 0.000451558 0)
(0.0935546 0.00045802 0)
(0.0933841 0.000464688 0)
(0.0932148 0.000471656 0)
(0.0930466 0.000479016 0)
(0.0928794 0.000486857 0)
(0.0927131 0.000495263 0)
(0.0925478 0.00050431 0)
(0.0923833 0.000514064 0)
(0.0922196 0.000524589 0)
(0.0920565 0.000535946 0)
(0.091894 0.000548197 0)
(0.0917319 0.000561411 0)
(0.0915701 0.000575665 0)
(0.0914086 0.000591061 0)
(0.0912471 0.000607728 0)
(0.0910856 0.000625841 0)
(0.0909238 0.000645633 0)
(0.0907615 0.000667414 0)
(0.0905985 0.000691591 0)
(0.0904345 0.000718687 0)
(0.0902691 0.000749373 0)
(0.0901018 0.000784498 0)
(0.0899321 0.000825131 0)
(0.0897594 0.000872616 0)
(0.0895829 0.000928633 0)
(0.0894019 0.000995293 0)
(0.0892155 0.00107524 0)
(0.0890227 0.00117179 0)
(0.0888227 0.00128912 0)
(0.0886147 0.00143248 0)
(0.0883984 0.00160849 0)
(0.088174 0.00182546 0)
(0.0879427 0.0020938 0)
(0.0877079 0.00242646 0)
(0.0874756 0.00283936 0)
(0.0872566 0.00335154 0)
(0.0870683 0.00398494 0)
(0.0869381 0.00476294 0)
(0.0869066 0.00570666 0)
(0.0870309 0.00682709 0)
(0.0873857 0.00811041 0)
(0.0880563 0.00949475 0)
(0.0891161 0.0108406 0)
(0.0905747 0.0119128 0)
(0.099987 0.000233868 0)
(0.0998541 0.000438618 0)
(0.0996174 0.000451367 0)
(0.0993732 0.000356934 0)
(0.0991631 0.000271871 0)
(0.0989854 0.000234347 0)
(0.0988266 0.000231653 0)
(0.0986754 0.000243844 0)
(0.0985259 0.00025914 0)
(0.0983757 0.000273236 0)
(0.0982241 0.000285491 0)
(0.098071 0.000296429 0)
(0.0979165 0.000306686 0)
(0.0977607 0.000316712 0)
(0.0976036 0.000326779 0)
(0.0974452 0.000337024 0)
(0.0972854 0.000347515 0)
(0.0971243 0.000358284 0)
(0.0969618 0.00036933 0)
(0.096798 0.000380627 0)
(0.096633 0.000392121 0)
(0.0964666 0.000403735 0)
(0.0962991 0.000415375 0)
(0.0961304 0.000426944 0)
(0.0959608 0.000438346 0)
(0.0957903 0.000449499 0)
(0.0956191 0.000460329 0)
(0.0954474 0.00047078 0)
(0.0952754 0.000480814 0)
(0.0951033 0.000490415 0)
(0.0949311 0.000499595 0)
(0.0947592 0.000508389 0)
(0.0945876 0.000516848 0)
(0.0944165 0.000525046 0)
(0.0942461 0.000533066 0)
(0.0940763 0.000541009 0)
(0.0939074 0.000548975 0)
(0.0937393 0.000557072 0)
(0.0935722 0.000565409 0)
(0.093406 0.000574093 0)
(0.0932407 0.00058323 0)
(0.0930764 0.000592921 0)
(0.092913 0.000603262 0)
(0.0927505 0.000614335 0)
(0.0925888 0.00062622 0)
(0.0924279 0.000638985 0)
(0.0922678 0.000652699 0)
(0.0921084 0.000667432 0)
(0.0919496 0.000683258 0)
(0.0917914 0.000700266 0)
(0.0916337 0.000718566 0)
(0.0914765 0.000738304 0)
(0.0913197 0.000759675 0)
(0.0911631 0.000782938 0)
(0.0910067 0.000808438 0)
(0.0908503 0.000836622 0)
(0.0906938 0.000868067 0)
(0.0905369 0.000903502 0)
(0.0903793 0.000943844 0)
(0.0902209 0.000990233 0)
(0.0900613 0.00104408 0)
(0.0899003 0.00110714 0)
(0.0897376 0.00118155 0)
(0.089573 0.00126996 0)
(0.0894065 0.0013756 0)
(0.0892384 0.00150244 0)
(0.0890694 0.00165528 0)
(0.0889009 0.00183997 0)
(0.0887353 0.00206351 0)
(0.0885766 0.00233423 0)
(0.088431 0.00266178 0)
(0.088308 0.00305707 0)
(0.0882211 0.00353183 0)
(0.08819 0.00409761 0)
(0.0882413 0.00476384 0)
(0.0884104 0.0055344 0)
(0.0887413 0.006402 0)
(0.0892839 0.00733984 0)
(0.0900861 0.00829118 0)
(0.0911773 0.00916056 0)
(0.0925407 0.00981635 0)
(0.0999948 0.000251969 0)
(0.0998969 0.000489981 0)
(0.0996951 0.000520474 0)
(0.0994647 0.000426505 0)
(0.099253 0.00033418 0)
(0.0990683 0.0002899 0)
(0.0989033 0.000283595 0)
(0.0987486 0.000294785 0)
(0.0985982 0.000310553 0)
(0.0984489 0.000325791 0)
(0.0982994 0.000339454 0)
(0.0981491 0.000351903 0)
(0.0979979 0.000363725 0)
(0.0978456 0.000375361 0)
(0.0976924 0.000387085 0)
(0.097538 0.000399039 0)
(0.0973826 0.000411291 0)
(0.0972259 0.000423873 0)
(0.0970682 0.000436782 0)
(0.0969092 0.000449987 0)
(0.0967492 0.000463429 0)
(0.096588 0.000477023 0)
(0.0964258 0.000490665 0)
(0.0962626 0.000504248 0)
(0.0960984 0.000517666 0)
(0.0959335 0.000530827 0)
(0.095768 0.00054365 0)
(0.0956019 0.000556072 0)
(0.0954354 0.000568049 0)
(0.0952687 0.000579564 0)
(0.0951019 0.000590628 0)
(0.0949351 0.000601276 0)
(0.0947685 0.000611566 0)
(0.0946022 0.000621574 0)
(0.0944363 0.000631394 0)
(0.094271 0.000641132 0)
(0.0941062 0.000650901 0)
(0.0939421 0.000660816 0)
(0.0937788 0.000670998 0)
(0.0936162 0.000681565 0)
(0.0934545 0.000692632 0)
(0.0932936 0.000704311 0)
(0.0931336 0.000716701 0)
(0.0929744 0.000729895 0)
(0.0928162 0.000743975 0)
(0.0926588 0.000759016 0)
(0.0925023 0.00077509 0)
(0.0923468 0.000792269 0)
(0.0921921 0.00081063 0)
(0.0920383 0.000830265 0)
(0.0918855 0.000851289 0)
(0.0917336 0.000873855 0)
(0.0915826 0.000898168 0)
(0.0914325 0.000924499 0)
(0.0912833 0.000953211 0)
(0.091135 0.000984768 0)
(0.0909875 0.00101977 0)
(0.0908409 0.00105895 0)
(0.0906952 0.00110326 0)
(0.0905503 0.00115382 0)
(0.0904064 0.00121202 0)
(0.0902635 0.00127956 0)
(0.090122 0.00135845 0)
(0.0899824 0.00145113 0)
(0.0898454 0.00156049 0)
(0.0897124 0.00168993 0)
(0.0895851 0.00184345 0)
(0.0894663 0.00202564 0)
(0.0893599 0.0022417 0)
(0.0892714 0.00249735 0)
(0.0892084 0.00279864 0)
(0.0891812 0.00315156 0)
(0.0892032 0.00356133 0)
(0.0892922 0.00403134 0)
(0.0894698 0.00456147 0)
(0.0897621 0.00514573 0)
(0.0901979 0.00576914 0)
(0.0908059 0.00640411 0)
(0.0916082 0.00700724 0)
(0.0926112 0.00751885 0)
(0.0937933 0.00786903 0)
(0.1 0.000264327 0)
(0.0999315 0.000534102 0)
(0.0997619 0.000586645 0)
(0.0995476 0.00049835 0)
(0.0993383 0.000401684 0)
(0.0991502 0.000351176 0)
(0.0989811 0.000340622 0)
(0.0988242 0.000349949 0)
(0.0986735 0.000365498 0)
(0.0985254 0.000381426 0)
(0.0983782 0.000396228 0)
(0.098231 0.000410039 0)
(0.0980833 0.000423346 0)
(0.097935 0.00043655 0)
(0.0977858 0.00044991 0)
(0.0976359 0.000463562 0)
(0.097485 0.000477573 0)
(0.0973332 0.00049197 0)
(0.0971804 0.000506747 0)
(0.0970266 0.000521869 0)
(0.0968719 0.000537272 0)
(0.0967162 0.000552862 0)
(0.0965596 0.00056853 0)
(0.0964021 0.000584161 0)
(0.0962438 0.000599641 0)
(0.0960848 0.00061487 0)
(0.0959251 0.000629761 0)
(0.0957649 0.000644246 0)
(0.0956043 0.000658278 0)
(0.0954433 0.000671835 0)
(0.0952822 0.000684927 0)
(0.0951209 0.00069759 0)
(0.0949597 0.000709882 0)
(0.0947985 0.000721884 0)
(0.0946376 0.000733692 0)
(0.094477 0.000745417 0)
(0.0943169 0.000757178 0)
(0.0941572 0.000769096 0)
(0.0939981 0.000781298 0)
(0.0938397 0.000793908 0)
(0.0936821 0.000807048 0)
(0.0935252 0.000820832 0)
(0.0933692 0.000835365 0)
(0.093214 0.000850741 0)
(0.0930599 0.000867043 0)
(0.0929067 0.000884348 0)
(0.0927547 0.000902724 0)
(0.0926038 0.000922241 0)
(0.0924541 0.000942973 0)
(0.0923057 0.000965007 0)
(0.0921586 0.000988455 0)
(0.0920131 0.00101346 0)
(0.091869 0.00104024 0)
(0.0917266 0.00106904 0)
(0.0915859 0.00110023 0)
(0.0914472 0.00113426 0)
(0.0913104 0.0011717 0)
(0.0911758 0.00121329 0)
(0.0910437 0.00125988 0)
(0.0909143 0.00131255 0)
(0.090788 0.00137255 0)
(0.0906654 0.00144141 0)
(0.0905473 0.00152086 0)
(0.0904347 0.00161295 0)
(0.090329 0.00172 0)
(0.0902323 0.00184466 0)
(0.090147 0.00198984 0)
(0.0900768 0.00215865 0)
(0.0900262 0.00235434 0)
(0.0900011 0.00258009 0)
(0.0900091 0.00283866 0)
(0.0900596 0.00313199 0)
(0.0901642 0.00346053 0)
(0.0903367 0.00382239 0)
(0.0905925 0.00421225 0)
(0.0909485 0.00462007 0)
(0.091421 0.00502991 0)
(0.0920239 0.00541887 0)
(0.0927643 0.00575716 0)
(0.0936386 0.00600986 0)
(0.0946274 0.00614169 0)
(0.100004 0.000271882 0)
(0.0999574 0.000571433 0)
(0.0998161 0.000649386 0)
(0.0996194 0.000571401 0)
(0.0994162 0.000473396 0)
(0.0992282 0.000417568 0)
(0.0990577 0.000402467 0)
(0.0988999 0.000409269 0)
(0.0987497 0.00042399 0)
(0.0986034 0.000440168 0)
(0.0984588 0.000455828 0)
(0.0983148 0.000470829 0)
(0.0981708 0.000485518 0)
(0.0980266 0.000500227 0)
(0.0978818 0.000515185 0)
(0.0977365 0.000530514 0)
(0.0975904 0.00054627 0)
(0.0974436 0.000562474 0)
(0.097296 0.000579117 0)
(0.0971476 0.000596157 0)
(0.0969983 0.000613525 0)
(0.0968483 0.000631123 0)
(0.0966975 0.000648835 0)
(0.0965459 0.000666541 0)
(0.0963935 0.000684124 0)
(0.0962406 0.000701476 0)
(0.096087 0.000718507 0)
(0.0959328 0.000735145 0)
(0.0957782 0.000751339 0)
(0.0956232 0.000767064 0)
(0.0954679 0.000782328 0)
(0.0953124 0.000797164 0)
(0.0951568 0.00081163 0)
(0.0950011 0.000825804 0)
(0.0948455 0.000839785 0)
(0.09469 0.000853682 0)
(0.0945348 0.000867615 0)
(0.09438 0.000881708 0)
(0.0942257 0.000896088 0)
(0.094072 0.000910881 0)
(0.0939189 0.000926209 0)
(0.0937666 0.000942187 0)
(0.0936152 0.000958918 0)
(0.0934648 0.000976493 0)
(0.0933154 0.000994992 0)
(0.0931673 0.00101448 0)
(0.0930205 0.00103503 0)
(0.0928751 0.00105669 0)
(0.0927313 0.00107953 0)
(0.0925892 0.00110362 0)
(0.0924489 0.00112906 0)
(0.0923108 0.00115597 0)
(0.0921748 0.00118454 0)
(0.0920413 0.00121501 0)
(0.0919105 0.0012477 0)
(0.0917826 0.00128303 0)
(0.0916579 0.00132151 0)
(0.0915369 0.00136379 0)
(0.0914199 0.00141062 0)
(0.0913075 0.00146292 0)
(0.0912004 0.00152174 0)
(0.0910995 0.00158829 0)
(0.0910059 0.00166396 0)
(0.0909211 0.00175026 0)
(0.090847 0.00184883 0)
(0.0907858 0.00196142 0)
(0.0907406 0.0020898 0)
(0.0907151 0.00223563 0)
(0.0907138 0.00240037 0)
(0.0907422 0.00258502 0)
(0.0908071 0.00278981 0)
(0.090916 0.00301386 0)
(0.0910778 0.00325471 0)
(0.0913021 0.00350773 0)
(0.0915986 0.00376568 0)
(0.091977 0.00401814 0)
(0.0924451 0.00425142 0)
(0.0930078 0.00444872 0)
(0.0936649 0.00459114 0)
(0.0944093 0.00465959 0)
(0.0952258 0.00463769 0)
(0.100006 0.000275734 0)
(0.0999755 0.000602788 0)
(0.0998583 0.000708487 0)
(0.0996795 0.000644678 0)
(0.0994854 0.000548229 0)
(0.0993008 0.0004883 0)
(0.0991312 0.000468708 0)
(0.0989741 0.000472566 0)
(0.0988253 0.000485977 0)
(0.0986811 0.000502013 0)
(0.0985395 0.000518253 0)
(0.098399 0.000534262 0)
(0.098259 0.000550213 0)
(0.098119 0.000566351 0)
(0.0979788 0.000582856 0)
(0.0978382 0.000599827 0)
(0.0976971 0.000617307 0)
(0.0975554 0.000635306 0)
(0.0974131 0.000653807 0)
(0.0972702 0.000672762 0)
(0.0971265 0.000692097 0)
(0.0969822 0.000711709 0)
(0.0968372 0.000731479 0)
(0.0966916 0.000751286 0)
(0.0965453 0.000771008 0)
(0.0963984 0.000790535 0)
(0.0962509 0.000809773 0)
(0.0961029 0.000828648 0)
(0.0959544 0.000847105 0)
(0.0958055 0.000865118 0)
(0.0956561 0.00088269 0)
(0.0955065 0.000899849 0)
(0.0953566 0.000916648 0)
(0.0952066 0.00093316 0)
(0.0950565 0.000949481 0)
(0.0949065 0.000965716 0)
(0.0947567 0.000981979 0)
(0.0946072 0.000998392 0)
(0.0944581 0.00101508 0)
(0.0943095 0.00103216 0)
(0.0941616 0.00104975 0)
(0.0940145 0.00106796 0)
(0.0938684 0.0010869 0)
(0.0937234 0.00110663 0)
(0.0935796 0.00112723 0)
(0.0934372 0.00114876 0)
(0.0932965 0.00117126 0)
(0.0931575 0.00119477 0)
(0.0930205 0.00121933 0)
(0.0928857 0.001245 0)
(0.0927533 0.00127183 0)
(0.0926236 0.00129994 0)
(0.0924969 0.00132945 0)
(0.0923735 0.00136058 0)
(0.0922537 0.00139357 0)
(0.0921379 0.00142877 0)
(0.0920266 0.0014666 0)
(0.0919202 0.00150757 0)
(0.0918195 0.00155228 0)
(0.0917251 0.00160142 0)
(0.0916381 0.00165578 0)
(0.0915594 0.00171621 0)
(0.0914906 0.00178362 0)
(0.0914332 0.00185898 0)
(0.0913893 0.00194319 0)
(0.0913613 0.00203713 0)
(0.0913522 0.0021415 0)
(0.0913655 0.00225671 0)
(0.0914052 0.00238279 0)
(0.091476 0.00251912 0)
(0.0915831 0.00266429 0)
(0.0917321 0.00281577 0)
(0.0919292 0.00296969 0)
(0.0921802 0.0031206 0)
(0.0924907 0.00326126 0)
(0.0928652 0.00338272 0)
(0.0933066 0.00347449 0)
(0.093815 0.00352528 0)
(0.0943873 0.003524 0)
(0.0950163 0.00346122 0)
(0.0956906 0.00333077 0)
(0.100006 0.000276954 0)
(0.0999873 0.000629153 0)
(0.0998899 0.000763968 0)
(0.0997286 0.000717364 0)
(0.0995456 0.000625132 0)
(0.0993669 0.000562524 0)
(0.0992005 0.000538812 0)
(0.0990456 0.000539565 0)
(0.0988991 0.000551334 0)
(0.0987577 0.000566904 0)
(0.0986193 0.000583473 0)
(0.0984826 0.000600307 0)
(0.0983467 0.000617394 0)
(0.0982111 0.000634874 0)
(0.0980756 0.000652868 0)
(0.0979399 0.000671441 0)
(0.0978038 0.000690618 0)
(0.0976674 0.000710395 0)
(0.0975305 0.000730744 0)
(0.097393 0.00075161 0)
(0.097255 0.000772912 0)
(0.0971164 0.000794545 0)
(0.0969773 0.000816388 0)
(0.0968376 0.000838318 0)
(0.0966973 0.000860215 0)
(0.0965565 0.000881966 0)
(0.0964151 0.000903475 0)
(0.0962732 0.000924665 0)
(0.0961308 0.000945478 0)
(0.0959879 0.000965887 0)
(0.0958446 0.000985887 0)
(0.095701 0.0010055 0)
(0.095557 0.00102477 0)
(0.0954129 0.00104376 0)
(0.0952686 0.00106256 0)
(0.0951243 0.00108126 0)
(0.0949802 0.00109998 0)
(0.0948364 0.00111881 0)
(0.0946929 0.00113789 0)
(0.09455 0.00115731 0)
(0.0944079 0.00117719 0)
(0.0942666 0.00119762 0)
(0.0941265 0.00121868 0)
(0.0939876 0.00124046 0)
(0.0938501 0.00126298 0)
(0.0937144 0.00128629 0)
(0.0935805 0.00131042 0)
(0.0934489 0.00133537 0)
(0.0933196 0.00136115 0)
(0.0931931 0.00138777 0)
(0.0930696 0.00141527 0)
(0.0929495 0.00144368 0)
(0.092833 0.0014731 0)
(0.0927207 0.00150366 0)
(0.092613 0.00153554 0)
(0.0925103 0.00156896 0)
(0.0924132 0.00160422 0)
(0.0923224 0.00164167 0)
(0.0922386 0.0016817 0)
(0.0921628 0.00172476 0)
(0.0920959 0.0017713 0)
(0.0920393 0.00182179 0)
(0.0919943 0.00187668 0)
(0.0919627 0.00193636 0)
(0.0919465 0.00200108 0)
(0.091948 0.00207093 0)
(0.0919698 0.00214575 0)
(0.0920148 0.002225 0)
(0.0920865 0.0023077 0)
(0.0921883 0.00239224 0)
(0.092324 0.00247628 0)
(0.0924975 0.00255663 0)
(0.0927123 0.00262909 0)
(0.0929717 0.00268843 0)
(0.0932784 0.00272844 0)
(0.0936339 0.00274214 0)
(0.0940382 0.00272215 0)
(0.0944895 0.00266143 0)
(0.094984 0.00255411 0)
(0.0955155 0.00239651 0)
(0.0960756 0.00218801 0)
(0.100006 0.000276479 0)
(0.0999943 0.000651554 0)
(0.0999127 0.000816036 0)
(0.0997679 0.000788861 0)
(0.0995972 0.000703175 0)
(0.0994264 0.000639399 0)
(0.0992649 0.000612198 0)
(0.0991136 0.000609917 0)
(0.0989703 0.000619866 0)
(0.0988322 0.000634738 0)
(0.0986975 0.000651421 0)
(0.0985648 0.000668909 0)
(0.0984332 0.000687005 0)
(0.0983022 0.000705737 0)
(0.0981714 0.000725156 0)
(0.0980407 0.000745287 0)
(0.0979098 0.000766132 0)
(0.0977786 0.000787668 0)
(0.0976471 0.000809852 0)
(0.0975152 0.000832623 0)
(0.0973828 0.000855895 0)
(0.09725 0.000879557 0)
(0.0971167 0.000903489 0)
(0.0969829 0.000927569 0)
(0.0968486 0.000951676 0)
(0.0967137 0.000975698 0)
(0.0965784 0.000999537 0)
(0.0964426 0.00102311 0)
(0.0963062 0.00104636 0)
(0.0961694 0.00106926 0)
(0.0960322 0.00109178 0)
(0.0958946 0.00111395 0)
(0.0957567 0.0011358 0)
(0.0956185 0.00115737 0)
(0.0954803 0.00117874 0)
(0.0953421 0.0012 0)
(0.095204 0.00122123 0)
(0.0950662 0.00124253 0)
(0.0949289 0.00126401 0)
(0.0947923 0.00128576 0)
(0.0946564 0.00130788 0)
(0.0945217 0.00133043 0)
(0.0943881 0.00135349 0)
(0.0942561 0.00137709 0)
(0.0941258 0.00140126 0)
(0.0939974 0.00142601 0)
(0.0938714 0.00145131 0)
(0.0937479 0.00147716 0)
(0.0936274 0.0015035 0)
(0.0935101 0.00153032 0)
(0.0933964 0.00155757 0)
(0.0932867 0.00158526 0)
(0.0931814 0.00161339 0)
(0.0930811 0.001642 0)
(0.0929862 0.00167118 0)
(0.0928974 0.00170102 0)
(0.0928151 0.00173166 0)
(0.0927403 0.00176327 0)
(0.0926736 0.00179602 0)
(0.0926161 0.00183007 0)
(0.0925689 0.00186556 0)
(0.0925332 0.00190259 0)
(0.0925103 0.00194117 0)
(0.092502 0.00198116 0)
(0.09251 0.00202229 0)
(0.0925362 0.00206404 0)
(0.092583 0.00210562 0)
(0.0926525 0.00214587 0)
(0.0927473 0.00218319 0)
(0.0928698 0.00221552 0)
(0.0930225 0.00224018 0)
(0.0932077 0.00225393 0)
(0.0934273 0.00225286 0)
(0.0936828 0.00223251 0)
(0.0939749 0.00218797 0)
(0.0943035 0.00211416 0)
(0.0946674 0.00200623 0)
(0.0950642 0.00186016 0)
(0.0954904 0.00167343 0)
(0.0959411 0.00144575 0)
(0.0964102 0.00117945 0)
(0.100006 0.000275072 0)
(0.0999978 0.000670985 0)
(0.0999286 0.000865039 0)
(0.0997988 0.000858803 0)
(0.0996409 0.0007816 0)
(0.0994793 0.000718157 0)
(0.0993243 0.000688275 0)
(0.0991777 0.000683223 0)
(0.0990384 0.000691328 0)
(0.0989043 0.000705362 0)
(0.0987736 0.000721995 0)
(0.0986452 0.000739992 0)
(0.0985181 0.000758982 0)
(0.0983918 0.000778877 0)
(0.0982659 0.000799655 0)
(0.0981402 0.000821299 0)
(0.0980145 0.000843778 0)
(0.0978886 0.000867052 0)
(0.0977625 0.00089106 0)
(0.0976361 0.000915731 0)
(0.0975094 0.000940973 0)
(0.0973823 0.000966673 0)
(0.0972547 0.000992711 0)
(0.0971268 0.00101897 0)
(0.0969984 0.00104532 0)
(0.0968695 0.00107165 0)
(0.0967401 0.00109786 0)
(0.0966103 0.00112388 0)
(0.09648 0.00114964 0)
(0.0963493 0.00117509 0)
(0.0962182 0.00120021 0)
(0.0960867 0.001225 0)
(0.095955 0.00124947 0)
(0.0958231 0.00127368 0)
(0.0956911 0.00129766 0)
(0.0955592 0.00132149 0)
(0.0954276 0.00134524 0)
(0.0952963 0.00136899 0)
(0.0951656 0.00139282 0)
(0.0950357 0.00141681 0)
(0.0949068 0.00144102 0)
(0.0947791 0.00146551 0)
(0.0946529 0.00149032 0)
(0.0945285 0.00151544 0)
(0.094406 0.00154088 0)
(0.0942859 0.00156658 0)
(0.0941685 0.00159251 0)
(0.094054 0.00161858 0)
(0.093943 0.00164471 0)
(0.0938357 0.00167081 0)
(0.0937326 0.00169679 0)
(0.0936341 0.00172257 0)
(0.0935408 0.00174807 0)
(0.0934531 0.00177324 0)
(0.0933716 0.00179804 0)
(0.0932968 0.00182242 0)
(0.0932296 0.00184637 0)
(0.0931706 0.00186985 0)
(0.0931207 0.0018928 0)
(0.0930808 0.00191513 0)
(0.0930519 0.00193668 0)
(0.0930353 0.00195721 0)
(0.0930321 0.00197635 0)
(0.0930438 0.0019936 0)
(0.0930719 0.00200826 0)
(0.093118 0.0020194 0)
(0.0931837 0.00202583 0)
(0.0932706 0.00202605 0)
(0.0933806 0.00201825 0)
(0.093515 0.0020002 0)
(0.0936755 0.00196933 0)
(0.093863 0.00192267 0)
(0.0940783 0.00185692 0)
(0.0943219 0.0017685 0)
(0.0945935 0.00165377 0)
(0.0948921 0.00150921 0)
(0.0952162 0.00133184 0)
(0.0955635 0.00111966 0)
(0.095931 0.000872272 0)
(0.0963148 0.000591309 0)
(0.0967107 0.000280765 0)
(0.100005 0.000273328 0)
(0.099999 0.000688333 0)
(0.0999394 0.000911392 0)
(0.099823 0.000926982 0)
(0.0996776 0.00085979 0)
(0.0995261 0.000798095 0)
(0.0993785 0.000766426 0)
(0.0992377 0.000759021 0)
(0.0991033 0.000765401 0)
(0.0989737 0.000778552 0)
(0.0988475 0.000795032 0)