/*--------------------------------*- C++ -*----------------------------------*\
| =========                 |                                                 |
| \\      /  F ield         | OpenFOAM: The Open Source CFD Toolbox           |
|  \\    /   O peration     | Version:  5.x                                   |
|   \\  /    A nd           | Web:      www.OpenFOAM.org                      |
|    \\/     M anipulation  |                                                 |
\*---------------------------------------------------------------------------*/
FoamFile
{
    version     2.0;
    format      ascii;
    class       volVectorField;
    location    "0.4";
    object      U;
}
// * * * * * * * * * * * * * * * * * * * * * * * * * * * * * * * * * * * * * //

dimensions      [0 1 -1 0 0 0 0];

internalField   nonuniform List<vector> 
12013
(
(0.0999932 3.9317e-06 0)
(0.0999225 1.11684e-05 0)
(0.0997639 1.83886e-05 0)
(0.0995477 2.22468e-05 0)
(0.099319 2.22924e-05 0)
(0.0991101 2.01895e-05 0)
(0.0989302 1.78322e-05 0)
(0.0987733 1.62728e-05 0)
(0.098629 1.56957e-05 0)
(0.0984887 1.58421e-05 0)
(0.0983477 1.63763e-05 0)
(0.0982039 1.70539e-05 0)
(0.098057 1.77461e-05 0)
(0.0979076 1.84051e-05 0)
(0.097756 1.90248e-05 0)
(0.0976027 1.96154e-05 0)
(0.097448 2.0189e-05 0)
(0.0972922 2.07547e-05 0)
(0.0971354 2.13186e-05 0)
(0.0969777 2.18837e-05 0)
(0.0968192 2.24498e-05 0)
(0.0966601 2.30156e-05 0)
(0.0965004 2.35772e-05 0)
(0.0963403 2.41307e-05 0)
(0.09618 2.46704e-05 0)
(0.0960197 2.51913e-05 0)
(0.0958596 2.5688e-05 0)
(0.0957 2.61552e-05 0)
(0.0955411 2.65891e-05 0)
(0.0953832 2.69865e-05 0)
(0.0952267 2.73457e-05 0)
(0.0950717 2.76659e-05 0)
(0.0949186 2.79477e-05 0)
(0.0947675 2.81941e-05 0)
(0.0946187 2.8409e-05 0)
(0.0944723 2.85973e-05 0)
(0.0943285 2.87652e-05 0)
(0.0941873 2.89215e-05 0)
(0.0940487 2.90745e-05 0)
(0.0939128 2.9234e-05 0)
(0.0937794 2.94111e-05 0)
(0.0936485 2.96173e-05 0)
(0.0935199 2.98649e-05 0)
(0.0933933 3.01681e-05 0)
(0.0932685 3.05409e-05 0)
(0.0931452 3.09992e-05 0)
(0.093023 3.156e-05 0)
(0.0929014 3.22418e-05 0)
(0.09278 3.3065e-05 0)
(0.0926582 3.40534e-05 0)
(0.0925355 3.52333e-05 0)
(0.0924112 3.66358e-05 0)
(0.0922845 3.82971e-05 0)
(0.0921545 4.02611e-05 0)
(0.0920204 4.25795e-05 0)
(0.0918809 4.53161e-05 0)
(0.0917348 4.85482e-05 0)
(0.0915806 5.23713e-05 0)
(0.0914166 5.69047e-05 0)
(0.0912407 6.22948e-05 0)
(0.0910505 6.87278e-05 0)
(0.0908431 7.64377e-05 0)
(0.090615 8.57236e-05 0)
(0.0903618 9.69699e-05 0)
(0.0900782 0.000110677 0)
(0.0897578 0.000127504 0)
(0.0893923 0.000148329 0)
(0.0889713 0.000174344 0)
(0.0884813 0.000207187 0)
(0.0879048 0.000249154 0)
(0.0872186 0.000303521 0)
(0.0863914 0.000375066 0)
(0.0853801 0.000470889 0)
(0.0841246 0.000601786 0)
(0.0825386 0.000784536 0)
(0.0804974 0.00104578 0)
(0.0778153 0.00142877 0)
(0.0741991 0.00200732 0)
(0.0691924 0.00292962 0)
(0.0622573 0.00460849 0)
(0.0544388 0.00889923 0)
(0.0999944 1.19306e-05 0)
(0.0999254 3.41054e-05 0)
(0.0997693 5.62575e-05 0)
(0.0995552 6.81431e-05 0)
(0.099328 6.83537e-05 0)
(0.0991195 6.19625e-05 0)
(0.0989395 5.47665e-05 0)
(0.0987822 4.99938e-05 0)
(0.0986374 4.82193e-05 0)
(0.0984969 4.86563e-05 0)
(0.0983556 5.0281e-05 0)
(0.0982118 5.23476e-05 0)
(0.0980651 5.44616e-05 0)
(0.0979158 5.64759e-05 0)
(0.0977645 5.8372e-05 0)
(0.0976115 6.01799e-05 0)
(0.0974572 6.19363e-05 0)
(0.0973017 6.36697e-05 0)
(0.0971453 6.53983e-05 0)
(0.096988 6.71299e-05 0)
(0.0968299 6.88657e-05 0)
(0.0966712 7.06e-05 0)
(0.0965119 7.23227e-05 0)
(0.0963522 7.402e-05 0)
(0.0961923 7.56765e-05 0)
(0.0960324 7.72753e-05 0)
(0.0958727 7.88e-05 0)
(0.0957135 8.02358e-05 0)
(0.095555 8.157e-05 0)
(0.0953975 8.27931e-05 0)
(0.0952413 8.38992e-05 0)
(0.0950866 8.48869e-05 0)
(0.0949337 8.57588e-05 0)
(0.0947828 8.65223e-05 0)
(0.0946341 8.71893e-05 0)
(0.0944878 8.77761e-05 0)
(0.094344 8.83026e-05 0)
(0.0942027 8.87928e-05 0)
(0.094064 8.9274e-05 0)
(0.0939279 8.97762e-05 0)
(0.0937943 9.03328e-05 0)
(0.0936631 9.09794e-05 0)
(0.0935341 9.17544e-05 0)
(0.0934071 9.26998e-05 0)
(0.0932818 9.38596e-05 0)
(0.0931579 9.52821e-05 0)
(0.0930351 9.70188e-05 0)
(0.0929128 9.91267e-05 0)
(0.0927907 0.000101669 0)
(0.0926681 0.000104717 0)
(0.0925446 0.000108352 0)
(0.0924194 0.000112668 0)
(0.0922918 0.000117777 0)
(0.092161 0.00012381 0)
(0.092026 0.000130928 0)
(0.0918856 0.000139322 0)
(0.0917388 0.000149229 0)
(0.0915839 0.000160939 0)
(0.0914194 0.00017481 0)
(0.0912432 0.000191289 0)
(0.091053 0.000210936 0)
(0.0908459 0.000234458 0)
(0.0906187 0.000262754 0)
(0.0903673 0.000296977 0)
(0.0900865 0.000338623 0)
(0.0897704 0.000389654 0)
(0.0894113 0.000452675 0)
(0.0889997 0.000531195 0)
(0.0885234 0.000630011 0)
(0.0879669 0.000755784 0)
(0.0873101 0.000917927 0)
(0.0865266 0.00112997 0)
(0.0855814 0.0014117 0)
(0.0844278 0.00179253 0)
(0.083003 0.00231678 0)
(0.0812238 0.00305178 0)
(0.0789813 0.00409949 0)
(0.0761323 0.00561195 0)
(0.0725184 0.00781087 0)
(0.0681928 0.0109505 0)
(0.0644328 0.0148853 0)
(0.0999954 2.00019e-05 0)
(0.0999299 5.79293e-05 0)
(0.0997795 9.59364e-05 0)
(0.099571 0.000116569 0)
(0.0993474 0.000117268 0)
(0.0991403 0.000106587 0)
(0.09896 9.44021e-05 0)
(0.0988016 8.62576e-05 0)
(0.0986557 8.31836e-05 0)
(0.0985143 8.38734e-05 0)
(0.0983727 8.65988e-05 0)
(0.0982288 9.00934e-05 0)
(0.0980824 9.36827e-05 0)
(0.0979336 9.7113e-05 0)
(0.0977828 0.00010035 0)
(0.0976305 0.000103442 0)
(0.0974769 0.000106449 0)
(0.0973223 0.00010942 0)
(0.0971667 0.000112383 0)
(0.0970102 0.000115354 0)
(0.0968531 0.000118332 0)
(0.0966952 0.000121309 0)
(0.0965369 0.000124267 0)
(0.0963782 0.000127183 0)
(0.0962192 0.000130031 0)
(0.0960602 0.000132782 0)
(0.0959015 0.000135408 0)
(0.0957431 0.000137884 0)
(0.0955855 0.000140189 0)
(0.0954288 0.000142307 0)
(0.0952734 0.000144227 0)
(0.0951194 0.000145947 0)
(0.0949671 0.000147472 0)
(0.0948167 0.000148815 0)
(0.0946685 0.000149997 0)
(0.0945225 0.000151043 0)
(0.0943789 0.000151991 0)
(0.0942377 0.000152879 0)
(0.094099 0.000153755 0)
(0.0939627 0.000154671 0)
(0.0938289 0.000155682 0)
(0.0936972 0.00015685 0)
(0.0935677 0.000158243 0)
(0.09344 0.000159929 0)
(0.0933139 0.000161985 0)
(0.0931891 0.000164494 0)
(0.0930652 0.000167544 0)
(0.0929418 0.000171231 0)
(0.0928185 0.000175664 0)
(0.0926946 0.000180964 0)
(0.0925697 0.000187269 0)
(0.0924431 0.000194741 0)
(0.092314 0.000203567 0)
(0.0921817 0.000213971 0)
(0.0920452 0.000226223 0)
(0.0919035 0.000240647 0)
(0.0917553 0.000257642 0)
(0.0915994 0.000277694 0)
(0.091434 0.000301403 0)
(0.0912574 0.000329517 0)
(0.0910672 0.000362966 0)
(0.090861 0.00040292 0)
(0.0906356 0.000450862 0)
(0.0903874 0.00050868 0)
(0.0901117 0.000578811 0)
(0.0898034 0.000664421 0)
(0.0894556 0.000769674 0)
(0.0890605 0.000900115 0)
(0.088608 0.00106321 0)
(0.0880859 0.00126917 0)
(0.0874789 0.00153208 0)
(0.0867682 0.00187169 0)
(0.085931 0.00231589 0)
(0.0849395 0.00290433 0)
(0.0837624 0.00369335 0)
(0.0823673 0.00476184 0)
(0.0807295 0.00621581 0)
(0.0788484 0.00818535 0)
(0.0767893 0.0107991 0)
(0.0748133 0.0140634 0)
(0.0736115 0.0173815 0)
(0.0999963 2.78925e-05 0)
(0.0999361 8.20783e-05 0)
(0.0997948 0.000136704 0)
(0.0995954 0.000166957 0)
(0.099378 0.000168805 0)
(0.0991733 0.000154162 0)
(0.0989926 0.00013704 0)
(0.0988325 0.000125431 0)
(0.0986849 0.000120929 0)
(0.0985422 0.000121769 0)
(0.0983999 0.000125538 0)
(0.098256 0.000130444 0)
(0.0981099 0.000135523 0)
(0.0979619 0.000140403 0)
(0.0978121 0.000145029 0)
(0.0976609 0.000149459 0)
(0.0975085 0.000153776 0)
(0.0973552 0.000158046 0)
(0.0972009 0.00016231 0)
(0.0970459 0.000166586 0)
(0.0968901 0.000170876 0)
(0.0967338 0.000175166 0)
(0.096577 0.000179432 0)
(0.0964198 0.00018364 0)
(0.0962624 0.000187753 0)
(0.096105 0.000191731 0)
(0.0959477 0.000195535 0)
(0.0957909 0.000199128 0)
(0.0956348 0.000202482 0)
(0.0954795 0.000205572 0)
(0.0953254 0.000208386 0)
(0.0951726 0.000210919 0)
(0.0950214 0.00021318 0)
(0.0948721 0.000215186 0)
(0.0947247 0.000216967 0)
(0.0945794 0.000218563 0)
(0.0944363 0.000220022 0)
(0.0942956 0.000221404 0)
(0.0941571 0.000222775 0)
(0.0940208 0.000224209 0)
(0.0938868 0.000225788 0)
(0.0937548 0.000227598 0)
(0.0936247 0.000229735 0)
(0.0934964 0.000232301 0)
(0.0933694 0.000235404 0)
(0.0932436 0.000239161 0)
(0.0931185 0.0002437 0)
(0.0929938 0.000249158 0)
(0.0928691 0.00025569 0)
(0.0927437 0.000263468 0)
(0.0926172 0.00027269 0)
(0.092489 0.000283583 0)
(0.0923582 0.000296414 0)
(0.0922243 0.0003115 0)
(0.0920862 0.000329219 0)
(0.0919431 0.000350029 0)
(0.0917938 0.000374486 0)
(0.0916369 0.00040327 0)
(0.0914712 0.000437214 0)
(0.0912947 0.00047735 0)
(0.0911057 0.000524958 0)
(0.0909017 0.000581639 0)
(0.09068 0.000649399 0)
(0.0904376 0.000730782 0)
(0.0901707 0.000829028 0)
(0.0898748 0.000948302 0)
(0.0895449 0.001094 0)
(0.0891748 0.0012732 0)
(0.0887575 0.00149522 0)
(0.0882848 0.00177249 0)
(0.0877474 0.00212166 0)
(0.0871354 0.00256521 0)
(0.0864389 0.00313344 0)
(0.0856496 0.0038669 0)
(0.0847645 0.00481888 0)
(0.0837919 0.00605625 0)
(0.0827626 0.0076551 0)
(0.0817464 0.00968267 0)
(0.0808754 0.0121505 0)
(0.0803696 0.0149009 0)
(0.080499 0.0173601 0)
(0.0999972 3.53666e-05 0)
(0.0999439 0.000105857 0)
(0.0998148 0.00017765 0)
(0.0996279 0.000218553 0)
(0.0994193 0.000222608 0)
(0.0992183 0.000204732 0)
(0.0990373 0.000182984 0)
(0.0988751 0.000167908 0)
(0.0987251 0.000161828 0)
(0.0985807 0.000162642 0)
(0.0984376 0.000167315 0)
(0.0982938 0.000173548 0)
(0.0981483 0.00018008 0)
(0.0980013 0.000186411 0)
(0.0978529 0.000192446 0)
(0.0977032 0.000198252 0)
(0.0975526 0.000203927 0)
(0.097401 0.000209549 0)
(0.0972487 0.000215169 0)
(0.0970956 0.00022081 0)
(0.0969419 0.000226472 0)
(0.0967877 0.000232139 0)
(0.096633 0.000237777 0)
(0.096478 0.000243344 0)
(0.0963228 0.000248793 0)
(0.0961677 0.000254071 0)
(0.0960126 0.000259127 0)
(0.095858 0.000263917 0)
(0.095704 0.000268401 0)
(0.0955508 0.00027255 0)
(0.0953986 0.000276347 0)
(0.0952477 0.000279789 0)
(0.0950982 0.000282884 0)
(0.0949504 0.000285657 0)
(0.0948044 0.000288147 0)
(0.0946603 0.000290406 0)
(0.0945183 0.000292497 0)
(0.0943783 0.000294499 0)
(0.0942403 0.000296498 0)
(0.0941044 0.00029859 0)
(0.0939705 0.000300883 0)
(0.0938384 0.000303491 0)
(0.093708 0.000306538 0)
(0.0935791 0.000310158 0)
(0.0934514 0.000314492 0)
(0.0933247 0.000319693 0)
(0.0931985 0.000325928 0)
(0.0930726 0.000333376 0)
(0.0929465 0.000342239 0)
(0.0928198 0.00035274 0)
(0.0926918 0.000365136 0)
(0.092562 0.00037972 0)
(0.0924299 0.000396837 0)
(0.0922946 0.000416893 0)
(0.0921553 0.000440373 0)
(0.0920113 0.00046786 0)
(0.0918614 0.00050006 0)
(0.0917045 0.000537828 0)
(0.0915394 0.000582213 0)
(0.0913645 0.0006345 0)
(0.0911783 0.000696272 0)
(0.0909787 0.000769491 0)
(0.0907637 0.000856594 0)
(0.0905308 0.000960631 0)
(0.090277 0.00108544 0)
(0.0899994 0.00123586 0)
(0.0896945 0.00141807 0)
(0.0893584 0.00163996 0)
(0.0889872 0.00191166 0)
(0.0885773 0.00224625 0)
(0.0881253 0.00266061 0)
(0.0876297 0.00317642 0)
(0.0870919 0.0038213 0)
(0.0865187 0.00462956 0)
(0.0859261 0.00564212 0)
(0.0853453 0.00690352 0)
(0.0848296 0.00845312 0)
(0.084462 0.0103046 0)
(0.0843584 0.0124061 0)
(0.0846514 0.0145737 0)
(0.0854177 0.0164083 0)
(0.0999981 4.21577e-05 0)
(0.0999529 0.000128515 0)
(0.0998385 0.000217771 0)
(0.0996672 0.000270482 0)
(0.0994697 0.000278208 0)
(0.0992738 0.000258261 0)
(0.099093 0.000232492 0)
(0.0989286 0.000214067 0)
(0.098776 0.000206249 0)
(0.0986297 0.000206792 0)
(0.0984858 0.000212146 0)
(0.098342 0.000219548 0)
(0.0981974 0.000227441 0)
(0.0980518 0.00023518 0)
(0.0979051 0.00024262 0)
(0.0977575 0.000249818 0)
(0.0976091 0.000256879 0)
(0.0974598 0.000263892 0)
(0.09731 0.000270913 0)
(0.0971595 0.000277967 0)
(0.0970084 0.000285053 0)
(0.0968569 0.000292149 0)
(0.096705 0.000299216 0)
(0.0965529 0.000306203 0)
(0.0964006 0.00031305 0)
(0.0962483 0.000319696 0)
(0.0960962 0.000326079 0)
(0.0959444 0.000332144 0)
(0.0957932 0.000337844 0)
(0.0956427 0.000343145 0)
(0.0954931 0.000348025 0)
(0.0953447 0.000352482 0)
(0.0951976 0.000356527 0)
(0.0950519 0.000360192 0)
(0.0949078 0.000363522 0)
(0.0947655 0.000366584 0)
(0.0946249 0.000369457 0)
(0.0944861 0.000372235 0)
(0.0943492 0.000375026 0)
(0.094214 0.000377951 0)
(0.0940805 0.000381139 0)
(0.0939487 0.000384733 0)
(0.0938183 0.000388888 0)
(0.0936891 0.000393766 0)
(0.093561 0.000399543 0)
(0.0934336 0.000406409 0)
(0.0933067 0.000414567 0)
(0.0931799 0.000424239 0)
(0.0930528 0.000435672 0)
(0.0929249 0.00044914 0)
(0.0927959 0.000464955 0)
(0.0926651 0.000483474 0)
(0.092532 0.000505115 0)
(0.092396 0.000530367 0)
(0.0922563 0.000559813 0)
(0.0921122 0.000594146 0)
(0.0919629 0.000634202 0)
(0.0918073 0.000680992 0)
(0.0916445 0.000735738 0)
(0.0914732 0.000799929 0)
(0.0912921 0.000875381 0)
(0.0910999 0.000964315 0)
(0.0908949 0.00106946 0)
(0.0906756 0.00119418 0)
(0.09044 0.00134262 0)
(0.0901866 0.00151992 0)
(0.0899135 0.00173246 0)
(0.0896195 0.00198819 0)
(0.0893036 0.00229696 0)
(0.0889661 0.00267099 0)
(0.088609 0.00312531 0)
(0.088237 0.00367818 0)
(0.0878595 0.00435121 0)
(0.0874921 0.00516894 0)
(0.0871602 0.00615706 0)
(0.0869015 0.00733811 0)
(0.0867695 0.00872278 0)
(0.0868336 0.0102944 0)
(0.0871724 0.0119848 0)
(0.0878517 0.0136454 0)
(0.0888742 0.0150303 0)
(0.099999 4.80151e-05 0)
(0.0999624 0.000149341 0)
(0.0998644 0.000256075 0)
(0.0997107 0.000321823 0)
(0.0995265 0.000335038 0)
(0.0993371 0.0003146 0)
(0.0991573 0.00028572 0)
(0.0989912 0.000264211 0)
(0.0988361 0.000254515 0)
(0.098688 0.000254489 0)
(0.0985433 0.000260229 0)
(0.0983998 0.000268571 0)
(0.0982564 0.000277675 0)
(0.0981125 0.000286739 0)
(0.097968 0.000295546 0)
(0.0978228 0.000304128 0)
(0.097677 0.000312588 0)
(0.0975307 0.000321014 0)
(0.0973838 0.000329466 0)
(0.0972364 0.000337967 0)
(0.0970886 0.000346516 0)
(0.0969404 0.000355085 0)
(0.0967919 0.000363627 0)
(0.0966432 0.000372084 0)
(0.0964944 0.000380387 0)
(0.0963456 0.000388462 0)
(0.096197 0.000396241 0)
(0.0960487 0.000403659 0)
(0.0959009 0.000410663 0)
(0.0957538 0.000417214 0)
(0.0956075 0.000423287 0)
(0.0954621 0.000428879 0)
(0.0953179 0.000434007 0)
(0.095175 0.000438705 0)
(0.0950334 0.000443031 0)
(0.0948933 0.000447061 0)
(0.0947547 0.000450891 0)
(0.0946176 0.000454631 0)
(0.0944821 0.00045841 0)
(0.0943481 0.000462369 0)
(0.0942156 0.000466663 0)
(0.0940844 0.000471462 0)
(0.0939544 0.000476946 0)
(0.0938254 0.000483311 0)
(0.0936972 0.000490764 0)
(0.0935696 0.000499528 0)
(0.0934424 0.000509843 0)
(0.0933151 0.000521972 0)
(0.0931874 0.000536203 0)
(0.0930591 0.000552857 0)
(0.0929295 0.000572297 0)
(0.0927984 0.000594939 0)
(0.0926653 0.000621263 0)
(0.0925294 0.00065183 0)
(0.0923905 0.000687304 0)
(0.0922476 0.00072847 0)
(0.0921003 0.000776266 0)
(0.0919478 0.000831816 0)
(0.0917892 0.000896468 0)
(0.0916238 0.000971843 0)
(0.0914507 0.0010599 0)
(0.0912689 0.00116298 0)
(0.0910777 0.00128395 0)
(0.0908762 0.00142623 0)
(0.0906637 0.00159398 0)
(0.0904398 0.00179222 0)
(0.0902046 0.00202698 0)
(0.0899586 0.00230554 0)
(0.0897039 0.00263653 0)
(0.0894435 0.00303017 0)
(0.0891832 0.00349832 0)
(0.0889317 0.00405435 0)
(0.0887023 0.00471271 0)
(0.0885139 0.00548783 0)
(0.0883929 0.0063919 0)
(0.0883739 0.00743095 0)
(0.0885002 0.00859852 0)
(0.0888202 0.00986638 0)
(0.0893798 0.0111732 0)
(0.0902058 0.012415 0)
(0.0912792 0.0134484 0)
(0.0999998 5.27608e-05 0)
(0.0999718 0.000167767 0)
(0.0998904 0.000291711 0)
(0.0997555 0.000371706 0)
(0.099586 0.000392467 0)
(0.0994046 0.000373458 0)
(0.0992272 0.000342667 0)
(0.0990601 0.000318507 0)
(0.0989031 0.000306848 0)
(0.0987536 0.000305939 0)
(0.0986084 0.000311718 0)
(0.0984656 0.000320717 0)
(0.0983236 0.000330834 0)
(0.0981818 0.000341098 0)
(0.0980398 0.000351203 0)
(0.0978975 0.000361138 0)
(0.0977549 0.000370987 0)
(0.0976118 0.000380832 0)
(0.0974684 0.00039073 0)
(0.0973246 0.000400701 0)
(0.0971805 0.000410739 0)
(0.0970361 0.000420811 0)
(0.0968915 0.000430865 0)
(0.0967468 0.000440834 0)
(0.096602 0.000450639 0)
(0.0964573 0.000460201 0)
(0.0963127 0.000469442 0)
(0.0961685 0.000478291 0)
(0.0960247 0.000486688 0)
(0.0958814 0.00049459 0)
(0.0957389 0.000501973 0)
(0.0955971 0.000508832 0)
(0.0954563 0.000515187 0)
(0.0953166 0.00052108 0)
(0.095178 0.000526577 0)
(0.0950406 0.000531764 0)
(0.0949045 0.00053675 0)
(0.0947696 0.000541663 0)
(0.094636 0.000546649 0)
(0.0945036 0.000551871 0)
(0.0943725 0.000557506 0)
(0.0942423 0.000563748 0)
(0.0941132 0.000570804 0)
(0.0939848 0.000578897 0)
(0.0938571 0.000588265 0)
(0.0937298 0.000599161 0)
(0.0936028 0.000611859 0)
(0.0934756 0.000626657 0)
(0.0933481 0.000643881 0)
(0.0932199 0.000663893 0)
(0.0930908 0.000687098 0)
(0.0929602 0.000713958 0)
(0.092828 0.000745005 0)
(0.0926935 0.000780856 0)
(0.0925565 0.000822232 0)
(0.0924165 0.000869981 0)
(0.0922729 0.000925105 0)
(0.0921253 0.000988792 0)
(0.0919732 0.00106245 0)
(0.0918162 0.00114775 0)
(0.0916539 0.00124666 0)
(0.0914858 0.00136155 0)
(0.0913119 0.00149517 0)
(0.0911321 0.00165082 0)
(0.0909468 0.00183234 0)
(0.0907566 0.00204423 0)
(0.0905632 0.00229175 0)
(0.0903688 0.00258091 0)
(0.090177 0.00291854 0)
(0.0899932 0.00331221 0)
(0.0898249 0.00377008 0)
(0.0896824 0.00430044 0)
(0.0895796 0.00491109 0)
(0.0895348 0.00560807 0)
(0.0895707 0.00639379 0)
(0.0897143 0.00726429 0)
(0.089996 0.00820548 0)
(0.0904458 0.0091886 0)
(0.091087 0.0101662 0)
(0.0919271 0.0110706 0)
(0.0929451 0.0118203 0)
(0.1 5.63257e-05 0)
(0.0999802 0.000183462 0)
(0.0999147 0.000324083 0)
(0.0997984 0.000419411 0)
(0.0996444 0.000449855 0)
(0.0994724 0.000434405 0)
(0.0992989 0.000403136 0)
(0.0991322 0.000376932 0)
(0.0989744 0.000363322 0)
(0.0988241 0.000361246 0)
(0.0986791 0.000366708 0)
(0.0985372 0.00037605 0)
(0.098397 0.000386946 0)
(0.0982577 0.000398254 0)
(0.0981186 0.000409559 0)
(0.0979795 0.00042079 0)
(0.0978404 0.000432001 0)
(0.097701 0.000443255 0)
(0.0975614 0.0004546 0)
(0.0974216 0.00046605 0)
(0.0972817 0.000477593 0)
(0.0971415 0.000489189 0)
(0.0970012 0.000500781 0)
(0.0968609 0.000512294 0)
(0.0967205 0.000523644 0)
(0.0965803 0.000534744 0)
(0.0964402 0.000545509 0)
(0.0963004 0.000555864 0)
(0.0961609 0.000565745 0)
(0.096022 0.000575106 0)
(0.0958836 0.000583922 0)
(0.0957459 0.000592189 0)
(0.0956089 0.000599931 0)
(0.0954728 0.000607194 0)
(0.0953376 0.000614052 0)
(0.0952033 0.000620601 0)
(0.0950701 0.000626964 0)
(0.0949378 0.00063328 0)
(0.0948065 0.000639713 0)
(0.0946762 0.000646443 0)
(0.0945468 0.000653668 0)
(0.0944183 0.000661604 0)
(0.0942904 0.00067048 0)
(0.0941632 0.000680544 0)
(0.0940365 0.000692059 0)
(0.0939101 0.000705305 0)
(0.0937839 0.000720586 0)
(0.0936576 0.000738226 0)
(0.093531 0.000758582 0)
(0.0934038 0.000782046 0)
(0.093276 0.000809058 0)
(0.093147 0.000840111 0)
(0.0930169 0.000875769 0)
(0.0928851 0.000916682 0)
(0.0927515 0.0009636 0)
(0.0926158 0.0010174 0)
(0.0924778 0.0010791 0)
(0.0923372 0.00114989 0)
(0.0921939 0.00123117 0)
(0.0920478 0.00132456 0)
(0.0918989 0.00143194 0)
(0.0917475 0.00155552 0)
(0.0915939 0.00169782 0)
(0.0914388 0.00186174 0)
(0.0912835 0.00205057 0)
(0.0911297 0.00226803 0)
(0.0909798 0.00251825 0)
(0.0908372 0.00280569 0)
(0.0907065 0.00313512 0)
(0.0905939 0.00351136 0)
(0.0905074 0.00393903 0)
(0.090457 0.00442206 0)
(0.0904553 0.00496299 0)
(0.0905172 0.00556202 0)
(0.0906602 0.00621573 0)
(0.0909031 0.00691545 0)
(0.0912648 0.00764549 0)
(0.0917619 0.00838144 0)
(0.0924044 0.00908938 0)
(0.0931912 0.00972701 0)
(0.0941048 0.0102482 0)
(0.100001 5.87609e-05 0)
(0.0999873 0.000196361 0)
(0.0999359 0.000352921 0)
(0.099837 0.00046445 0)
(0.0996984 0.000506612 0)
(0.099537 0.000496904 0)
(0.0993689 0.000466735 0)
(0.0992043 0.000439261 0)
(0.0990471 0.000423844 0)
(0.0988972 0.000420394 0)
(0.0987529 0.000425214 0)
(0.0986126 0.000434585 0)
(0.0984746 0.000446011 0)
(0.0983379 0.000458187 0)
(0.0982021 0.000470574 0)
(0.0980665 0.000483029 0)
(0.0979311 0.000495555 0)
(0.0977958 0.000508194 0)
(0.0976604 0.000520975 0)
(0.0975249 0.000533902 0)
(0.0973893 0.000546954 0)
(0.0972536 0.000560087 0)
(0.097118 0.000573236 0)
(0.0969823 0.000586321 0)
(0.0968467 0.000599252 0)
(0.0967111 0.000611938 0)
(0.0965758 0.000624289 0)
(0.0964407 0.000636226 0)
(0.0963059 0.000647684 0)
(0.0961715 0.000658615 0)
(0.0960376 0.000668992 0)
(0.0959042 0.000678816 0)
(0.0957713 0.000688112 0)
(0.0956391 0.000696931 0)
(0.0955076 0.000705353 0)
(0.0953768 0.000713484 0)
(0.0952467 0.000721453 0)
(0.0951174 0.000729414 0)
(0.0949888 0.000737542 0)
(0.094861 0.000746034 0)
(0.0947338 0.000755103 0)
(0.0946073 0.000764981 0)
(0.0944813 0.000775919 0)
(0.0943558 0.000788182 0)
(0.0942307 0.000802053 0)
(0.0941058 0.000817834 0)
(0.0939811 0.000835848 0)
(0.0938564 0.000856441 0)
(0.0937315 0.000879989 0)
(0.0936064 0.000906902 0)
(0.0934808 0.000937637 0)
(0.0933547 0.000972703 0)
(0.0932278 0.00101267 0)
(0.0931001 0.0010582 0)
(0.0929715 0.00111004 0)
(0.0928419 0.00116904 0)
(0.0927112 0.0012362 0)
(0.0925796 0.00131264 0)
(0.0924472 0.00139967 0)
(0.0923142 0.00149878 0)
(0.092181 0.00161166 0)
(0.0920485 0.00174021 0)
(0.0919174 0.00188656 0)
(0.091789 0.00205308 0)
(0.0916652 0.00224234 0)
(0.0915482 0.00245708 0)
(0.0914411 0.00270019 0)
(0.0913477 0.00297454 0)
(0.0912729 0.0032829 0)
(0.0912228 0.00362764 0)
(0.0912047 0.00401049 0)
(0.0912273 0.00443209 0)
(0.0913006 0.00489148 0)
(0.0914358 0.00538546 0)
(0.0916449 0.00590787 0)
(0.0919396 0.00644886 0)
(0.0923307 0.00699424 0)
(0.0928258 0.00752515 0)
(0.0934279 0.00801847 0)
(0.0941324 0.00844816 0)
(0.0949262 0.00878815 0)
(0.100001 6.02187e-05 0)
(0.0999926 0.000206655 0)
(0.0999529 0.000378274 0)
(0.0998696 0.000506594 0)
(0.0997458 0.000562253 0)
(0.0995956 0.000560359 0)
(0.0994347 0.000532917 0)
(0.0992739 0.000505084 0)
(0.0991187 0.000488149 0)
(0.0989703 0.000483237 0)
(0.0988277 0.000487161 0)
(0.0986894 0.000496284 0)
(0.098554 0.000508003 0)
(0.0984205 0.000520863 0)
(0.0982881 0.000534204 0)
(0.0981563 0.000547794 0)
(0.098025 0.00056158 0)
(0.0978938 0.000575567 0)
(0.0977627 0.000589762 0)
(0.0976317 0.000604156 0)
(0.0975008 0.000618719 0)
(0.0973698 0.000633396 0)
(0.0972389 0.000648118 0)
(0.0971081 0.000662799 0)
(0.0969773 0.000677346 0)
(0.0968467 0.000691665 0)
(0.0967163 0.000705664 0)
(0.096586 0.000719261 0)
(0.096456 0.000732391 0)
(0.0963264 0.000745005 0)
(0.096197 0.000757079 0)
(0.096068 0.000768613 0)
(0.0959395 0.000779635 0)
(0.0958114 0.000790201 0)
(0.0956838 0.000800395 0)
(0.0955567 0.000810329 0)
(0.0954301 0.000820138 0)
(0.095304 0.000829985 0)
(0.0951785 0.000840055 0)
(0.0950535 0.000850555 0)
(0.0949289 0.000861709 0)
(0.0948049 0.000873763 0)
(0.0946813 0.00088698 0)
(0.094558 0.000901637 0)
(0.0944351 0.000918032 0)
(0.0943125 0.000936478 0)
(0.0941901 0.000957309 0)
(0.0940678 0.000980881 0)
(0.0939456 0.00100758 0)
(0.0938235 0.00103781 0)
(0.0937014 0.00107203 0)
(0.0935792 0.00111075 0)
(0.093457 0.00115453 0)
(0.0933347 0.00120399 0)
(0.0932126 0.00125984 0)
(0.0930906 0.00132287 0)
(0.092969 0.00139401 0)
(0.0928481 0.00147425 0)
(0.0927283 0.00156474 0)
(0.0926102 0.00166675 0)
(0.0924946 0.00178168 0)
(0.0923824 0.00191105 0)
(0.0922749 0.0020565 0)
(0.0921739 0.00221977 0)
(0.0920814 0.00240262 0)
(0.0919999 0.00260682 0)
(0.0919328 0.00283403 0)
(0.0918837 0.00308569 0)
(0.0918573 0.00336285 0)
(0.0918589 0.003666 0)
(0.0918946 0.00399478 0)
(0.0919712 0.00434772 0)
(0.092096 0.0047219 0)
(0.0922766 0.00511261 0)
(0.0925205 0.00551305 0)
(0.0928343 0.00591408 0)
(0.0932232 0.00630416 0)
(0.0936899 0.00666955 0)
(0.0942335 0.00699491 0)
(0.0948489 0.00726437 0)
(0.0955261 0.00746306 0)
(0.100001 6.09117e-05 0)
(0.0999963 0.000214721 0)
(0.0999659 0.000400456 0)
(0.0998957 0.000545857 0)
(0.0997856 0.00061643 0)
(0.099647 0.000624191 0)
(0.0994943 0.000601052 0)
(0.099339 0.000573858 0)
(0.0991874 0.000555843 0)
(0.0990417 0.000549516 0)
(0.0989016 0.000552394 0)
(0.0987661 0.000561053 0)
(0.0986338 0.000572855 0)
(0.0985036 0.000586228 0)
(0.0983749 0.000600394 0)
(0.0982471 0.000615025 0)
(0.0981199 0.000630005 0)
(0.0979931 0.000645298 0)
(0.0978666 0.000660882 0)
(0.0977402 0.00067673 0)
(0.097614 0.000692799 0)
(0.0974878 0.000709027 0)
(0.0973618 0.000725337 0)
(0.0972359 0.00074164 0)
(0.0971101 0.000757841 0)
(0.0969844 0.000773843 0)
(0.0968589 0.000789554 0)
(0.0967335 0.000804892 0)
(0.0966083 0.000819792 0)
(0.0964834 0.000834206 0)
(0.0963587 0.000848112 0)
(0.0962343 0.000861511 0)
(0.0961101 0.000874433 0)
(0.0959862 0.000886936 0)
(0.0958626 0.000899106 0)
(0.0957394 0.000911058 0)
(0.0956165 0.000922932 0)
(0.095494 0.000934895 0)
(0.0953718 0.000947136 0)
(0.0952499 0.000959867 0)
(0.0951285 0.000973321 0)
(0.0950074 0.000987749 0)
(0.0948866 0.00100342 0)
(0.0947663 0.00102062 0)
(0.0946463 0.00103964 0)
(0.0945266 0.0010608 0)
(0.0944073 0.00108444 0)
(0.0942884 0.00111091 0)
(0.0941699 0.00114058 0)
(0.0940518 0.00117386 0)
(0.0939342 0.00121117 0)
(0.0938172 0.00125299 0)
(0.0937009 0.00129984 0)
(0.0935855 0.00135229 0)
(0.0934712 0.00141097 0)
(0.0933583 0.00147657 0)
(0.0932473 0.00154988 0)
(0.0931386 0.00163173 0)
(0.0930329 0.00172306 0)
(0.0929309 0.00182484 0)
(0.0928337 0.00193813 0)
(0.0927425 0.00206402 0)
(0.0926588 0.00220362 0)
(0.0925844 0.002358 0)
(0.0925216 0.00252818 0)
(0.0924727 0.00271499 0)
(0.092441 0.00291906 0)
(0.0924298 0.00314065 0)
(0.0924429 0.00337956 0)
(0.0924848 0.00363495 0)
(0.0925601 0.00390519 0)
(0.0926736 0.0041877 0)
(0.0928302 0.00447877 0)
(0.0930348 0.00477341 0)
(0.0932914 0.00506534 0)
(0.0936032 0.00534692 0)
(0.093972 0.00560939 0)
(0.0943979 0.0058431 0)
(0.0948786 0.00603809 0)
(0.0954093 0.0061847 0)
(0.0959824 0.00627443 0)
(0.100001 6.10679e-05 0)
(0.0999986 0.000221026 0)
(0.0999751 0.000419939 0)
(0.0999156 0.000582441 0)
(0.0998179 0.000668951 0)
(0.0996906 0.000687891 0)
(0.099547 0.000670501 0)
(0.0993985 0.000644978 0)
(0.0992518 0.000626439 0)
(0.09911 0.000618885 0)
(0.0989734 0.000620682 0)
(0.0988412 0.00062874 0)
(0.0987124 0.000640464 0)
(0.0985859 0.000654204 0)
(0.0984612 0.000669074 0)
(0.0983376 0.000684655 0)
(0.0982147 0.000700765 0)
(0.0980924 0.000717319 0)
(0.0979704 0.000734264 0)
(0.0978487 0.000751553 0)
(0.0977273 0.000769126 0)
(0.097606 0.000786912 0)
(0.0974848 0.00080483 0)
(0.0973638 0.000822785 0)
(0.0972429 0.000840681 0)
(0.0971221 0.00085842 0)
(0.0970015 0.000875912 0)
(0.096881 0.000893076 0)
(0.0967607 0.000909847 0)
(0.0966405 0.00092618 0)
(0.0965204 0.000942053 0)
(0.0964005 0.000957469 0)
(0.0962807 0.000972458 0)
(0.0961611 0.000987078 0)
(0.0960417 0.00100141 0)
(0.0959225 0.00101558 0)
(0.0958035 0.00102972 0)
(0.0956847 0.00104401 0)
(0.0955661 0.00105861 0)
(0.0954479 0.00107376 0)
(0.0953299 0.00108969 0)
(0.0952123 0.00110664 0)
(0.095095 0.00112487 0)
(0.0949781 0.00114468 0)
(0.0948617 0.00116635 0)
(0.0947458 0.00119019 0)
(0.0946304 0.00121653 0)
(0.0945158 0.00124568 0)
(0.0944019 0.00127802 0)
(0.0942889 0.00131389 0)
(0.0941769 0.00135371 0)
(0.0940663 0.00139788 0)
(0.0939571 0.00144685 0)
(0.0938498 0.00150111 0)
(0.0937446 0.00156118 0)
(0.0936421 0.00162763 0)
(0.0935428 0.00170106 0)
(0.0934474 0.0017821 0)
(0.0933565 0.00187143 0)
(0.0932713 0.00196973 0)
(0.0931928 0.00207767 0)
(0.0931223 0.0021959 0)
(0.0930614 0.00232501 0)
(0.093012 0.00246548 0)
(0.0929759 0.00261764 0)
(0.0929557 0.00278158 0)
(0.0929538 0.00295711 0)
(0.0929733 0.00314366 0)
(0.093017 0.0033402 0)
(0.0930882 0.00354511 0)
(0.0931903 0.00375616 0)
(0.0933264 0.00397036 0)
(0.0934996 0.00418396 0)
(0.0937124 0.00439241 0)
(0.0939668 0.00459042 0)
(0.094264 0.00477203 0)
(0.0946038 0.00493086 0)
(0.0949852 0.00506034 0)
(0.0954055 0.00515408 0)
(0.0958604 0.00520626 0)
(0.0963446 0.00521202 0)
(0.100001 6.08958e-05 0)
(0.0999999 0.000226049 0)
(0.0999812 0.00043727 0)
(0.0999304 0.000616675 0)
(0.0998433 0.000719759 0)
(0.0997269 0.000751057 0)
(0.0995929 0.000740678 0)
(0.099452 0.000717835 0)
(0.0993114 0.000699412 0)
(0.0991745 0.000690939 0)
(0.0990421 0.000691734 0)
(0.0989139 0.000699143 0)
(0.098789 0.000710687 0)
(0.0986667 0.000724681 0)
(0.0985461 0.000740155 0)
(0.0984267 0.000756606 0)
(0.0983083 0.000773785 0)
(0.0981906 0.000791559 0)
(0.0980733 0.000809841 0)
(0.0979563 0.000828558 0)
(0.0978396 0.000847637 0)
(0.0977232 0.000866996 0)
(0.0976069 0.000886545 0)
(0.0974907 0.000906187 0)
(0.0973747 0.000925826 0)
(0.0972588 0.000945364 0)
(0.097143 0.000964711 0)
(0.0970273 0.000983789 0)
(0.0969117 0.00100253 0)
(0.0967962 0.0010209 0)
(0.0966807 0.00103887 0)
(0.0965653 0.00105645 0)
(0.09645 0.00107366 0)
(0.0963347 0.00109056 0)
(0.0962196 0.00110723 0)
(0.0961045 0.00112378 0)
(0.0959896 0.00114036 0)
(0.0958748 0.00115712 0)
(0.0957602 0.00117425 0)
(0.0956459 0.00119195 0)
(0.0955319 0.00121045 0)
(0.0954182 0.00122999 0)
(0.095305 0.00125083 0)
(0.0951922 0.00127322 0)
(0.0950801 0.00129746 0)
(0.0949687 0.00132383 0)
(0.0948582 0.00135261 0)
(0.0947487 0.0013841 0)
(0.0946404 0.00141863 0)
(0.0945335 0.0014565 0)
(0.0944283 0.00149805 0)
(0.094325 0.00154361 0)
(0.0942241 0.00159355 0)
(0.0941259 0.00164825 0)
(0.0940309 0.00170809 0)
(0.0939397 0.00177348 0)
(0.0938529 0.00184482 0)
(0.0937712 0.00192253 0)
(0.0936956 0.00200701 0)
(0.0936271 0.00209863 0)
(0.0935667 0.0021977 0)
(0.0935159 0.00230447 0)
(0.0934761 0.00241906 0)
(0.0934488 0.00254145 0)
(0.093436 0.00267144 0)
(0.0934397 0.00280855 0)
(0.0934618 0.00295206 0)
(0.0935046 0.00310085 0)
(0.0935704 0.00325344 0)
(0.0936613 0.00340789 0)
(0.0937796 0.00356178 0)
(0.093927 0.00371223 0)
(0.0941054 0.00385583 0)
(0.0943158 0.00398876 0)
(0.0945589 0.00410683 0)
(0.0948345 0.0042056 0)
(0.095142 0.00428056 0)
(0.0954796 0.00432733 0)
(0.0958449 0.00434189 0)
(0.0962345 0.00432075 0)
(0.0966442 0.00426117 0)
(0.100001 6.05646e-05 0)
(0.1 0.000230228 0)
(0.099985 0.000452987 0)
(0.0999409 0.000648943 0)
(0.0998631 0.000768909 0)
(0.0997568 0.000813409 0)
(0.0996324 0.000811083 0)
(0.0994998 0.000791858 0)
(0.0993661 0.00077423 0)
(0.0992349 0.00076524 0)
(0.0991075 0.000765212 0)