/*--------------------------------*- C++ -*----------------------------------*\
| =========                 |                                                 |
| \\      /  F ield         | OpenFOAM: The Open Source CFD Toolbox           |
|  \\    /   O peration     | Version:  5.x                                   |
|   \\  /    A nd           | Web:      www.OpenFOAM.org                      |
|    \\/     M anipulation  |                                                 |
\*---------------------------------------------------------------------------*/
FoamFile
{
    version     2.0;
    format      ascii;
    class       volVectorField;
    location    "0.8";
    object      U;
}
// * * * * * * * * * * * * * * * * * * * * * * * * * * * * * * * * * * * * * //

dimensions      [0 1 -1 0 0 0 0];

internalField   nonuniform List<vector> 
12013
(
(0.100003 -6.88796e-07 0)
(0.100012 -5.26868e-07 0)
(0.100014 7.0736e-07 0)
(0.0999982 2.9854e-06 0)
(0.0999554 5.91234e-06 0)
(0.0998832 8.8905e-06 0)
(0.0997855 1.13595e-05 0)
(0.0996703 1.29912e-05 0)
(0.0995467 1.37482e-05 0)
(0.0994225 1.38119e-05 0)
(0.0993028 1.34553e-05 0)
(0.0991899 1.29329e-05 0)
(0.099084 1.2423e-05 0)
(0.0989843 1.20146e-05 0)
(0.0988896 1.17296e-05 0)
(0.0987987 1.15493e-05 0)
(0.098711 1.144e-05 0)
(0.0986258 1.13667e-05 0)
(0.0985431 1.13018e-05 0)
(0.0984628 1.12263e-05 0)
(0.098385 1.11289e-05 0)
(0.0983098 1.10029e-05 0)
(0.0982374 1.08462e-05 0)
(0.098168 1.0657e-05 0)
(0.0981017 1.04351e-05 0)
(0.0980386 1.01808e-05 0)
(0.0979789 9.89394e-06 0)
(0.0979227 9.57429e-06 0)
(0.0978702 9.22204e-06 0)
(0.0978213 8.83722e-06 0)
(0.0977762 8.42047e-06 0)
(0.097735 7.97259e-06 0)
(0.0976978 7.49592e-06 0)
(0.0976645 6.99233e-06 0)
(0.0976352 6.46636e-06 0)
(0.0976098 5.92237e-06 0)
(0.0975884 5.36586e-06 0)
(0.0975709 4.8052e-06 0)
(0.0975571 4.24849e-06 0)
(0.0975468 3.70683e-06 0)
(0.0975399 3.1917e-06 0)
(0.0975361 2.71705e-06 0)
(0.0975351 2.29885e-06 0)
(0.0975365 1.95463e-06 0)
(0.0975398 1.70424e-06 0)
(0.0975446 1.57033e-06 0)
(0.0975503 1.57776e-06 0)
(0.0975561 1.75461e-06 0)
(0.0975614 2.13308e-06 0)
(0.0975654 2.74855e-06 0)
(0.097567 3.64247e-06 0)
(0.0975653 4.86106e-06 0)
(0.0975591 6.45845e-06 0)
(0.097547 8.4971e-06 0)
(0.0975277 1.10493e-05 0)
(0.0974995 1.42015e-05 0)
(0.0974606 1.8055e-05 0)
(0.0974087 2.27315e-05 0)
(0.0973415 2.83775e-05 0)
(0.0972563 3.51716e-05 0)
(0.0971498 4.33332e-05 0)
(0.0970183 5.31338e-05 0)
(0.0968573 6.49141e-05 0)
(0.0966615 7.91055e-05 0)
(0.0964248 9.62627e-05 0)
(0.0961392 0.000117105 0)
(0.0957955 0.000142582 0)
(0.0953818 0.000173967 0)
(0.0948831 0.000212994 0)
(0.0942803 0.000262073 0)
(0.0935483 0.000324624 0)
(0.0926536 0.000405598 0)
(0.0915507 0.000512342 0)
(0.0901764 0.000656011 0)
(0.0884408 0.000853974 0)
(0.0862141 0.00113392 0)
(0.0833031 0.00154112 0)
(0.0794016 0.00215343 0)
(0.0740307 0.00312844 0)
(0.0666201 0.00490741 0)
(0.0582761 0.00947941 0)
(0.100003 -2.12441e-06 0)
(0.100012 -1.64444e-06 0)
(0.100015 2.12856e-06 0)
(0.0999993 9.10967e-06 0)
(0.0999571 1.80873e-05 0)
(0.0998857 2.72297e-05 0)
(0.0997886 3.48154e-05 0)
(0.0996739 3.98357e-05 0)
(0.0995507 4.21725e-05 0)
(0.0994268 4.23799e-05 0)
(0.0993073 4.12951e-05 0)
(0.0991944 3.96997e-05 0)
(0.0990885 3.81381e-05 0)
(0.0989887 3.68865e-05 0)
(0.0988939 3.6012e-05 0)
(0.098803 3.54586e-05 0)
(0.0987151 3.51221e-05 0)
(0.0986299 3.48966e-05 0)
(0.0985471 3.46973e-05 0)
(0.0984668 3.44661e-05 0)
(0.0983889 3.41681e-05 0)
(0.0983136 3.37837e-05 0)
(0.0982411 3.3305e-05 0)
(0.0981716 3.27276e-05 0)
(0.0981051 3.20509e-05 0)
(0.0980419 3.12751e-05 0)
(0.097982 3.03996e-05 0)
(0.0979255 2.94246e-05 0)
(0.0978727 2.83502e-05 0)
(0.0978235 2.71768e-05 0)
(0.097778 2.59058e-05 0)
(0.0977363 2.45409e-05 0)
(0.0976986 2.30877e-05 0)
(0.0976647 2.15541e-05 0)
(0.0976348 1.9952e-05 0)
(0.0976087 1.82951e-05 0)
(0.0975865 1.66018e-05 0)
(0.0975682 1.48959e-05 0)
(0.0975534 1.32042e-05 0)
(0.0975422 1.15588e-05 0)
(0.0975342 9.99607e-06 0)
(0.0975293 8.55882e-06 0)
(0.097527 7.29527e-06 0)
(0.0975271 6.25988e-06 0)
(0.097529 5.51335e-06 0)
(0.0975324 5.12471e-06 0)
(0.0975364 5.17025e-06 0)
(0.0975407 5.73648e-06 0)
(0.0975443 6.92056e-06 0)
(0.0975465 8.83208e-06 0)
(0.0975463 1.15968e-05 0)
(0.0975427 1.5357e-05 0)
(0.0975346 2.02772e-05 0)
(0.0975207 2.65474e-05 0)
(0.0974995 3.43897e-05 0)
(0.0974694 4.40657e-05 0)
(0.0974286 5.58843e-05 0)
(0.097375 7.02152e-05 0)
(0.0973064 8.75034e-05 0)
(0.0972198 0.00010829 0)
(0.0971124 0.000133237 0)
(0.0969803 0.000163166 0)
(0.0968194 0.000199101 0)
(0.0966247 0.000242341 0)
(0.0963901 0.000294542 0)
(0.0961084 0.000357851 0)
(0.0957707 0.000435087 0)
(0.0953663 0.000530004 0)
(0.0948814 0.000647686 0)
(0.094299 0.000795134 0)
(0.0935972 0.000982174 0)
(0.0927475 0.00122285 0)
(0.0917128 0.00153762 0)
(0.0904435 0.00195687 0)
(0.0888739 0.00252642 0)
(0.0869169 0.00331616 0)
(0.084459 0.00443262 0)
(0.0813508 0.00603615 0)
(0.077426 0.00836352 0)
(0.0727382 0.0116931 0)
(0.0686403 0.0158936 0)
(0.100003 -3.67966e-06 0)
(0.100012 -2.91897e-06 0)
(0.100016 3.51187e-06 0)
(0.100001 1.54652e-05 0)
(0.0999602 3.08723e-05 0)
(0.0998904 4.65937e-05 0)
(0.099795 5.96704e-05 0)
(0.0996817 6.83588e-05 0)
(0.0995596 7.24423e-05 0)
(0.0994364 7.2861e-05 0)
(0.0993172 7.10455e-05 0)
(0.0992045 6.83366e-05 0)
(0.0990985 6.5671e-05 0)
(0.0989986 6.35268e-05 0)
(0.0989037 6.20231e-05 0)
(0.0988126 6.10682e-05 0)
(0.0987246 6.04848e-05 0)
(0.0986393 6.00935e-05 0)
(0.0985565 5.97492e-05 0)
(0.0984761 5.93533e-05 0)
(0.0983981 5.88447e-05 0)
(0.0983228 5.81915e-05 0)
(0.0982502 5.73781e-05 0)
(0.0981805 5.63979e-05 0)
(0.0981138 5.52501e-05 0)
(0.0980503 5.39339e-05 0)
(0.0979901 5.24497e-05 0)
(0.0979333 5.07972e-05 0)
(0.0978799 4.89762e-05 0)
(0.0978301 4.69886e-05 0)
(0.097784 4.48367e-05 0)
(0.0977416 4.25268e-05 0)
(0.0977029 4.00687e-05 0)
(0.0976681 3.74768e-05 0)
(0.097637 3.47699e-05 0)
(0.0976098 3.19732e-05 0)
(0.0975862 2.91189e-05 0)
(0.0975663 2.62466e-05 0)
(0.0975499 2.34031e-05 0)
(0.0975368 2.0643e-05 0)
(0.0975269 1.80297e-05 0)
(0.0975198 1.56361e-05 0)
(0.0975153 1.35448e-05 0)
(0.0975129 1.18493e-05 0)
(0.0975122 1.06541e-05 0)
(0.0975127 1.00764e-05 0)
(0.0975138 1.02474e-05 0)
(0.097515 1.13153e-05 0)
(0.0975153 1.34449e-05 0)
(0.0975142 1.68253e-05 0)
(0.0975105 2.16688e-05 0)
(0.0975033 2.8219e-05 0)
(0.0974916 3.67551e-05 0)
(0.0974739 4.76001e-05 0)
(0.097449 6.1131e-05 0)
(0.0974152 7.77888e-05 0)
(0.0973708 9.80962e-05 0)
(0.0973138 0.000122676 0)
(0.097242 0.000152274 0)
(0.0971527 0.000187798 0)
(0.0970431 0.000230351 0)
(0.0969097 0.000281297 0)
(0.0967485 0.000342332 0)
(0.096555 0.000415588 0)
(0.0963238 0.000503771 0)
(0.0960482 0.000610357 0)
(0.0957207 0.000739868 0)
(0.0953318 0.000898258 0)
(0.0948703 0.00109347 0)
(0.0943223 0.00133628 0)
(0.0936711 0.00164143 0)
(0.0928961 0.00202948 0)
(0.0919721 0.00252935 0)
(0.0908696 0.00318204 0)
(0.0895548 0.00404587 0)
(0.0879929 0.00520273 0)
(0.0861575 0.00676347 0)
(0.0840469 0.00886581 0)
(0.0817286 0.0116496 0)
(0.0794749 0.0151323 0)
(0.0780177 0.0187016 0)
(0.100003 -5.36313e-06 0)
(0.100012 -4.3913e-06 0)
(0.100017 4.77515e-06 0)
(0.100004 2.19179e-05 0)
(0.0999649 4.40945e-05 0)
(0.0998977 6.67992e-05 0)
(0.099805 8.57648e-05 0)
(0.0996941 9.84537e-05 0)
(0.0995739 0.00010452 0)
(0.099452 0.000105285 0)
(0.0993335 0.000102792 0)
(0.099221 9.89678e-05 0)
(0.099115 9.51662e-05 0)
(0.099015 9.20863e-05 0)
(0.0989198 8.99115e-05 0)
(0.0988286 8.85188e-05 0)
(0.0987405 8.76608e-05 0)
(0.0986552 8.70826e-05 0)
(0.0985723 8.6578e-05 0)
(0.0984919 8.60049e-05 0)
(0.0984139 8.52766e-05 0)
(0.0983386 8.43454e-05 0)
(0.0982659 8.31889e-05 0)
(0.0981961 8.17983e-05 0)
(0.0981293 8.01708e-05 0)
(0.0980656 7.83059e-05 0)
(0.098005 7.62044e-05 0)
(0.0979477 7.38659e-05 0)
(0.0978938 7.12907e-05 0)
(0.0978434 6.8481e-05 0)
(0.0977965 6.54417e-05 0)
(0.0977531 6.21815e-05 0)
(0.0977134 5.87155e-05 0)
(0.0976773 5.50642e-05 0)
(0.0976448 5.12554e-05 0)
(0.0976158 4.73265e-05 0)
(0.0975905 4.33236e-05 0)
(0.0975685 3.9304e-05 0)
(0.0975499 3.53351e-05 0)
(0.0975343 3.14965e-05 0)
(0.0975217 2.78791e-05 0)
(0.0975117 2.45884e-05 0)
(0.097504 2.17434e-05 0)
(0.0974982 1.94777e-05 0)
(0.0974938 1.79422e-05 0)
(0.0974905 1.73052e-05 0)
(0.0974876 1.77552e-05 0)
(0.0974844 1.95034e-05 0)
(0.0974803 2.27875e-05 0)
(0.0974744 2.78764e-05 0)
(0.0974659 3.50737e-05 0)
(0.0974537 4.47262e-05 0)
(0.0974369 5.72302e-05 0)
(0.0974141 7.30451e-05 0)
(0.0973841 9.27031e-05 0)
(0.0973453 0.000116827 0)
(0.097296 0.00014615 0)
(0.0972345 0.000181546 0)
(0.0971585 0.000224056 0)
(0.0970658 0.000274937 0)
(0.0969536 0.000335716 0)
(0.0968189 0.000408264 0)
(0.0966581 0.00049489 0)
(0.0964672 0.000598473 0)
(0.0962417 0.000722635 0)
(0.095976 0.000871973 0)
(0.095664 0.00105238 0)
(0.0952985 0.00127148 0)
(0.0948711 0.00153927 0)
(0.0943723 0.00186893 0)
(0.0937915 0.00227799 0)
(0.0931173 0.00278997 0)
(0.092338 0.00343642 0)
(0.0914437 0.00425947 0)
(0.0904297 0.0053144 0)
(0.0893033 0.00667084 0)
(0.0880946 0.00840865 0)
(0.0868747 0.0106 0)
(0.0857797 0.0132615 0)
(0.0850388 0.0162355 0)
(0.0849393 0.0189272 0)
(0.100003 -7.19504e-06 0)
(0.100013 -6.11681e-06 0)
(0.100018 5.80168e-06 0)
(0.100007 2.82793e-05 0)
(0.0999712 5.75055e-05 0)
(0.0999077 8.75744e-05 0)
(0.0998188 0.000112849 0)
(0.0997115 0.000129932 0)
(0.0995941 0.0001383 0)
(0.0994741 0.000139635 0)
(0.0993567 0.000136592 0)
(0.0992446 0.0001317 0)
(0.0991387 0.000126757 0)
(0.0990385 0.000122706 0)
(0.0989431 0.000119814 0)
(0.0988517 0.000117937 0)
(0.0987636 0.000116763 0)
(0.0986783 0.000115965 0)
(0.0985955 0.000115275 0)
(0.0985152 0.000114506 0)
(0.0984374 0.000113544 0)
(0.0983621 0.000112325 0)
(0.0982896 0.000110819 0)
(0.0982198 0.000109013 0)
(0.0981529 0.000106904 0)
(0.098089 0.00010449 0)
(0.0980282 0.000101773 0)
(0.0979706 9.8752e-05 0)
(0.0979162 9.54287e-05 0)
(0.0978651 9.18066e-05 0)
(0.0978173 8.78926e-05 0)
(0.0977729 8.36997e-05 0)
(0.097732 7.92477e-05 0)
(0.0976945 7.45648e-05 0)
(0.0976603 6.96892e-05 0)
(0.0976295 6.46703e-05 0)
(0.097602 5.95704e-05 0)
(0.0975777 5.44645e-05 0)
(0.0975564 4.94432e-05 0)
(0.0975379 4.46107e-05 0)
(0.0975221 4.00893e-05 0)
(0.0975085 3.60165e-05 0)
(0.097497 3.255e-05 0)
(0.0974871 2.9866e-05 0)
(0.0974784 2.81627e-05 0)
(0.0974703 2.76618e-05 0)
(0.0974625 2.86104e-05 0)
(0.0974541 3.12857e-05 0)
(0.0974445 3.59988e-05 0)
(0.0974329 4.31003e-05 0)
(0.0974186 5.29863e-05 0)
(0.0974004 6.61069e-05 0)
(0.0973775 8.2977e-05 0)
(0.0973487 0.000104188 0)
(0.0973126 0.000130427 0)
(0.097268 0.00016249 0)
(0.0972132 0.000201316 0)
(0.0971465 0.000248011 0)
(0.0970662 0.000303891 0)
(0.09697 0.000370531 0)
(0.0968556 0.000449833 0)
(0.0967205 0.000544104 0)
(0.0965616 0.000656168 0)
(0.0963757 0.0007895 0)
(0.0961592 0.000948417 0)
(0.095908 0.00113831 0)
(0.0956178 0.00136596 0)
(0.0952838 0.00163997 0)
(0.0949009 0.00197127 0)
(0.0944644 0.00237386 0)
(0.0939699 0.00286566 0)
(0.0934145 0.00346958 0)
(0.0927984 0.00421459 0)
(0.0921272 0.00513665 0)
(0.091416 0.00627852 0)
(0.0906952 0.00768699 0)
(0.0900179 0.00940396 0)
(0.0894686 0.0114456 0)
(0.089166 0.0137614 0)
(0.0892479 0.0161634 0)
(0.089797 0.0182358 0)
(0.100003 -9.19588e-06 0)
(0.100013 -8.16072e-06 0)
(0.100019 6.45035e-06 0)
(0.100011 3.43188e-05 0)
(0.0999791 7.0797e-05 0)
(0.0999204 0.000108573 0)
(0.0998366 0.000140593 0)
(0.099734 0.000162535 0)
(0.0996203 0.000173623 0)
(0.099503 0.000175852 0)
(0.0993871 0.000172472 0)
(0.0992757 0.000166624 0)
(0.0991699 0.00016057 0)
(0.0990696 0.000155527 0)
(0.0989741 0.000151867 0)
(0.0988826 0.000149447 0)
(0.0987945 0.000147901 0)
(0.0987093 0.000146834 0)
(0.0986267 0.000145919 0)
(0.0985467 0.000144927 0)
(0.0984692 0.000143711 0)
(0.0983943 0.000142192 0)
(0.098322 0.00014033 0)
(0.0982524 0.000138107 0)
(0.0981856 0.000135518 0)
(0.0981218 0.000132563 0)
(0.0980609 0.000129241 0)
(0.098003 0.000125553 0)
(0.0979482 0.000121503 0)
(0.0978965 0.000117095 0)
(0.097848 0.000112339 0)
(0.0978026 0.000107254 0)
(0.0977605 0.000101864 0)
(0.0977215 9.6208e-05 0)
(0.0976857 9.03336e-05 0)
(0.0976529 8.43042e-05 0)
(0.0976231 7.81987e-05 0)
(0.0975962 7.21125e-05 0)
(0.097572 6.61589e-05 0)
(0.0975503 6.04698e-05 0)
(0.0975308 5.51975e-05 0)
(0.0975134 5.05153e-05 0)
(0.0974976 4.66196e-05 0)
(0.0974831 4.3731e-05 0)
(0.0974694 4.20958e-05 0)
(0.0974562 4.19898e-05 0)
(0.0974427 4.37203e-05 0)
(0.0974285 4.76303e-05 0)
(0.0974128 5.41049e-05 0)
(0.0973949 6.3576e-05 0)
(0.0973741 7.65302e-05 0)
(0.0973493 9.35192e-05 0)
(0.0973198 0.000115172 0)
(0.0972843 0.000142206 0)
(0.0972418 0.000175451 0)
(0.0971911 0.000215869 0)
(0.0971306 0.000264578 0)
(0.097059 0.000322892 0)
(0.0969746 0.000392364 0)
(0.0968757 0.000474833 0)
(0.0967603 0.000572497 0)
(0.0966263 0.000687998 0)
(0.0964716 0.000824521 0)
(0.0962937 0.000985936 0)
(0.0960902 0.00117696 0)
(0.0958585 0.00140337 0)
(0.0955961 0.00167226 0)
(0.0953009 0.00199238 0)
(0.0949712 0.00237451 0)
(0.0946063 0.0028319 0)
(0.0942074 0.00338073 0)
(0.0937783 0.00404057 0)
(0.0933274 0.00483447 0)
(0.0928698 0.00578855 0)
(0.09243 0.0069302 0)
(0.0920455 0.00828373 0)
(0.0917699 0.00986153 0)
(0.0916733 0.011648 0)
(0.0918358 0.0135747 0)
(0.0923253 0.0154886 0)
(0.0931461 0.0171326 0)
(0.100003 -1.1387e-05 0)
(0.100013 -1.0594e-05 0)
(0.100021 6.56449e-06 0)
(0.100016 3.97731e-05 0)
(0.0999884 8.36099e-05 0)
(0.0999354 0.000129383 0)
(0.0998579 0.000168598 0)
(0.0997611 0.000195929 0)
(0.0996522 0.000210262 0)
(0.0995382 0.000213827 0)
(0.0994244 0.000210427 0)
(0.099314 0.000203807 0)
(0.0992086 0.000196716 0)
(0.0991084 0.000190676 0)
(0.0990128 0.000186197 0)
(0.0989213 0.000183162 0)
(0.0988333 0.000181171 0)
(0.0987484 0.00017977 0)
(0.0986662 0.000178578 0)
(0.0985867 0.000177321 0)
(0.0985097 0.000175824 0)
(0.0984353 0.000173988 0)
(0.0983635 0.000171761 0)
(0.0982944 0.000169121 0)
(0.0982279 0.00016606 0)
(0.0981643 0.000162575 0)
(0.0981035 0.000158668 0)
(0.0980455 0.000154342 0)
(0.0979905 0.000149599 0)
(0.0979384 0.000144449 0)
(0.0978892 0.000138905 0)
(0.097843 0.000132991 0)
(0.0977998 0.000126739 0)
(0.0977594 0.000120198 0)
(0.0977219 0.000113426 0)
(0.0976871 0.000106503 0)
(0.097655 9.95253e-05 0)
(0.0976254 9.26091e-05 0)
(0.0975981 8.58918e-05 0)
(0.097573 7.95342e-05 0)
(0.0975498 7.37192e-05 0)
(0.0975283 6.86569e-05 0)
(0.097508 6.45826e-05 0)
(0.0974886 6.17618e-05 0)
(0.0974697 6.04898e-05 0)
(0.0974508 6.10956e-05 0)
(0.0974315 6.39464e-05 0)
(0.0974111 6.94502e-05 0)
(0.0973889 7.80637e-05 0)
(0.0973644 9.02967e-05 0)
(0.0973368 0.000106723 0)
(0.0973053 0.000127989 0)
(0.0972689 0.000154827 0)
(0.0972268 0.000188072 0)
(0.0971779 0.000228678 0)
(0.0971212 0.000277747 0)
(0.0970555 0.000336549 0)
(0.0969796 0.000406565 0)
(0.0968921 0.000489524 0)
(0.0967917 0.000587457 0)
(0.096677 0.000702757 0)
(0.0965464 0.000838261 0)
(0.0963985 0.000997335 0)
(0.096232 0.00118399 0)
(0.0960454 0.00140302 0)
(0.0958379 0.00166014 0)
(0.0956087 0.00196218 0)
(0.0953579 0.00231728 0)
(0.0950867 0.00273507 0)
(0.0947979 0.00322687 0)
(0.0944963 0.00380572 0)
(0.0941904 0.00448635 0)
(0.0938928 0.00528463 0)
(0.0936221 0.00621651 0)
(0.0934044 0.00729572 0)
(0.0932743 0.00852976 0)
(0.0932751 0.00991337 0)
(0.0934558 0.0114188 0)
(0.093863 0.0129839 0)
(0.0945243 0.0145013 0)
(0.0954202 0.0158204 0)
(0.100003 -1.37899e-05 0)
(0.100014 -1.34889e-05 0)
(0.100023 5.98136e-06 0)
(0.100021 4.43644e-05 0)
(0.0999987 9.55571e-05 0)
(0.0999523 0.000149552 0)
(0.099882 0.000196408 0)
(0.099792 0.000229722 0)
(0.0996887 0.00024793 0)
(0.0995789 0.000253392 0)
(0.0994678 0.000250398 0)
(0.0993589 0.000243274 0)
(0.0992542 0.000235273 0)
(0.0991542 0.000228255 0)
(0.0990588 0.00022291 0)
(0.0989675 0.000219181 0)
(0.0988799 0.000216654 0)
(0.0987954 0.000214837 0)
(0.0987138 0.000213299 0)
(0.098635 0.000211725 0)
(0.0985587 0.00020991 0)
(0.0984851 0.000207733 0)
(0.098414 0.00020513 0)
(0.0983455 0.000202073 0)
(0.0982797 0.000198548 0)
(0.0982165 0.000194554 0)
(0.098156 0.000190092 0)
(0.0980982 0.000185164 0)
(0.0980431 0.000179779 0)
(0.0979907 0.000173947 0)
(0.0979411 0.000167688 0)
(0.0978942 0.000161032 0)
(0.0978499 0.000154021 0)
(0.0978082 0.000146712 0)
(0.0977691 0.00013918 0)
(0.0977324 0.000131518 0)
(0.097698 0.000123842 0)
(0.0976657 0.000116291 0)
(0.0976354 0.000109026 0)
(0.0976069 0.000102237 0)
(0.0975799 9.61398e-05 0)
(0.0975541 9.09792e-05 0)
(0.0975291 8.70312e-05 0)
(0.0975048 8.46042e-05 0)
(0.0974805 8.40416e-05 0)
(0.097456 8.5725e-05 0)
(0.0974306 9.00777e-05 0)
(0.0974039 9.75709e-05 0)
(0.0973753 0.000108727 0)
(0.0973442 0.000124129 0)
(0.0973099 0.000144428 0)
(0.0972716 0.000170356 0)
(0.0972287 0.000202734 0)
(0.0971803 0.000242493 0)
(0.0971255 0.00029069 0)
(0.0970636 0.000348532 0)
(0.0969935 0.000417402 0)
(0.0969144 0.000498888 0)
(0.0968252 0.000594828 0)
(0.0967251 0.000707348 0)
(0.0966131 0.000838917 0)
(0.0964884 0.000992409 0)
(0.0963503 0.00117117 0)
(0.0961984 0.0013791 0)
(0.0960324 0.00162072 0)
(0.0958526 0.0019013 0)
(0.0956602 0.00222689 0)
(0.0954569 0.00260444 0)
(0.095246 0.00304176 0)
(0.0950324 0.00354754 0)
(0.0948234 0.00413112 0)
(0.0946291 0.0048021 0)
(0.0944633 0.00556964 0)
(0.0943441 0.00644119 0)
(0.0942942 0.00742055 0)
(0.0943412 0.00850503 0)
(0.0945156 0.00968143 0)
(0.0948479 0.0109213 0)
(0.0953621 0.0121765 0)
(0.096066 0.0133768 0)
(0.096938 0.0144362 0)
(0.100003 -1.64229e-05 0)
(0.100014 -1.6911e-05 0)
(0.100025 4.54877e-06 0)
(0.100026 4.78267e-05 0)
(0.10001 0.000106259 0)
(0.0999702 0.000168621 0)
(0.0999078 0.000223545 0)
(0.0998254 0.000263481 0)
(0.0997286 0.000286285 0)
(0.0996237 0.000294319 0)
(0.0995159 0.000292264 0)
(0.0994091 0.000284994 0)
(0.0993055 0.000276269 0)
(0.0992061 0.000268326 0)
(0.0991112 0.000262079 0)
(0.0990203 0.000257571 0)
(0.0989332 0.00025441 0)
(0.0988494 0.00025208 0)
(0.0987686 0.000250113 0)
(0.0986907 0.000248157 0)
(0.0986154 0.000245978 0)
(0.0985427 0.000243431 0)
(0.0984726 0.00024044 0)
(0.098405 0.000236965 0)
(0.0983399 0.000232992 0)
(0.0982774 0.000228514 0)
(0.0982174 0.000223534 0)
(0.09816 0.000218056 0)
(0.098105 0.000212091 0)
(0.0980526 0.000205656 0)
(0.0980026 0.000198776 0)
(0.0979551 0.000191489 0)
(0.09791 0.000183848 0)
(0.0978671 0.000175921 0)
(0.0978265 0.000167797 0)
(0.0977879 0.000159588 0)
(0.0977512 0.000151428 0)
(0.0977164 0.000143478 0)
(0.0976831 0.000135927 0)
(0.0976512 0.000128991 0)
(0.0976203 0.000122918 0)
(0.0975903 0.000117989 0)
(0.0975608 0.000114518 0)
(0.0975315 0.000112856 0)
(0.097502 0.000113389 0)
(0.0974718 0.000116551 0)
(0.0974405 0.000122815 0)
(0.0974077 0.000132709 0)
(0.0973728 0.000146816 0)
(0.0973353 0.000165781 0)
(0.0972946 0.000190321 0)
(0.09725 0.000221234 0)
(0.0972011 0.000259414 0)
(0.0971471 0.000305861 0)
(0.0970873 0.000361703 0)
(0.0970212 0.000428211 0)
(0.096948 0.000506825 0)
(0.0968671 0.000599179 0)
(0.096778 0.000707135 0)
(0.0966802 0.00083281 0)
(0.0965732 0.000978619 0)
(0.0964569 0.00114731 0)
(0.0963312 0.00134202 0)
(0.0961967 0.00156629 0)
(0.0960539 0.00182411 0)
(0.0959044 0.00211996 0)
(0.0957503 0.00245879 0)
(0.0955948 0.00284597 0)
(0.0954422 0.00328723 0)
(0.0952987 0.00378846 0)
(0.095172 0.00435541 0)
(0.0950724 0.00499319 0)
(0.0950126 0.0057056 0)
(0.0950077 0.00649409 0)
(0.0950755 0.00735645 0)
(0.0952355 0.00828506 0)
(0.0955073 0.00926496 0)
(0.095908 0.010272 0)
(0.0964484 0.0112716 0)
(0.097128 0.0122198 0)
(0.0979292 0.0130677 0)
(0.100003 -1.92994e-05 0)
(0.100015 -2.09112e-05 0)
(0.100027 2.14381e-06 0)
(0.100031 4.99366e-05 0)
(0.10002 0.000115381 0)
(0.0999882 0.00018617 0)
(0.099934 0.000249551 0)
(0.0998596 0.000296763 0)
(0.09977 0.00032495 0)
(0.0996706 0.000336323 0)
(0.0995668 0.00033584 0)
(0.0994627 0.000328866 0)
(0.0993608 0.000319669 0)
(0.0992625 0.000310895 0)
(0.0991683 0.000303731 0)
(0.0990782 0.000298368 0)
(0.0989919 0.000294469 0)
(0.0989091 0.000291521 0)
(0.0988293 0.000289035 0)
(0.0987525 0.000286625 0)
(0.0986784 0.000284029 0)
(0.0986069 0.000281081 0)
(0.0985379 0.000277688 0)
(0.0984714 0.0002738 0)
(0.0984073 0.000269395 0)
(0.0983456 0.000264467 0)
(0.0982862 0.000259017 0)
(0.0982293 0.000253053 0)
(0.0981746 0.000246588 0)
(0.0981222 0.000239647 0)
(0.0980721 0.000232263 0)
(0.0980241 0.000224481 0)
(0.0979782 0.000216366 0)
(0.0979342 0.000208 0)
(0.0978921 0.000199487 0)
(0.0978518 0.000190958 0)
(0.097813 0.000182565 0)
(0.0977755 0.000174494 0)
(0.0977393 0.000166957 0)
(0.0977041 0.0001602 0)
(0.0976695 0.0001545 0)
(0.0976354 0.000150172 0)
(0.0976014 0.000147565 0)
(0.0975673 0.000147069 0)
(0.0975326 0.000149112 0)
(0.097497 0.000154169 0)
(0.0974601 0.000162762 0)
(0.0974215 0.000175463 0)
(0.0973807 0.000192905 0)
(0.0973372 0.000215782 0)
(0.0972907 0.00024486 0)
(0.0972406 0.000280985 0)
(0.0971865 0.000325095 0)
(0.0971278 0.00037823 0)
(0.0970642 0.000441546 0)
(0.0969951 0.000516333 0)
(0.0969203 0.000604029 0)
(0.0968394 0.000706243 0)
(0.0967522 0.00082477 0)
(0.0966587 0.000961617 0)
(0.0965589 0.00111902 0)
(0.0964532 0.00129946 0)
(0.0963422 0.00150569 0)
(0.096227 0.0017407 0)
(0.096109 0.00200777 0)
(0.0959905 0.0023104 0)
(0.0958743 0.00265224 0)
(0.0957641 0.00303704 0)
(0.0956649 0.00346844 0)
(0.0955828 0.00394981 0)
(0.0955252 0.00448387 0)
(0.0955012 0.00507232 0)
(0.095521 0.00571526 0)
(0.0955965 0.00641055 0)
(0.0957401 0.00715301 0)
(0.0959644 0.00793359 0)
(0.0962811 0.00873865 0)
(0.0966988 0.00954945 0)
(0.0972212 0.0103424 0)
(0.0978447 0.0110902 0)
(0.0985566 0.011765 0)
(0.100003 -2.24259e-05 0)
(0.100015 -2.55175e-05 0)
(0.100029 -1.30916e-06 0)
(0.100036 5.05424e-05 0)
(0.10003 0.00012268 0)
(0.100005 0.000201867 0)
(0.099959 0.000274033 0)
(0.099893 0.000329159 0)
(0.0998108 0.00036354 0)
(0.0997176 0.000379075 0)
(0.0996185 0.000380871 0)
(0.0995176 0.000374712 0)
(0.099418 0.000365359 0)
(0.0993214 0.000355899 0)
(0.0992285 0.000347838 0)
(0.0991395 0.000341562 0)
(0.0990543 0.000336832 0)
(0.0989726 0.000333167 0)
(0.0988942 0.000330068 0)
(0.0988187 0.000327131 0)
(0.0987459 0.000324066 0)
(0.0986757 0.000320686 0)
(0.098608 0.00031688 0)
(0.0985426 0.000312587 0)
(0.0984796 0.000307779 0)
(0.0984188 0.000302444 0)
(0.0983603 0.000296586 0)
(0.0983039 0.000290215 0)
(0.0982496 0.000283351 0)
(0.0981973 0.000276022 0)
(0.098147 0.000268271 0)
(0.0980986 0.000260156 0)
(0.0980519 0.000251753 0)
(0.0980069 0.000243158 0)
(0.0979634 0.000234492 0)
(0.0979213 0.000225903 0)
(0.0978804 0.000217565 0)
(0.0978405 0.000209684 0)
(0.0978014 0.000202498 0)
(0.0977629 0.000196278 0)
(0.0977247 0.000191331 0)
(0.0976866 0.000188001 0)
(0.0976483 0.000186669 0)
(0.0976096 0.000187758 0)
(0.09757 0.000191731 0)
(0.0975293 0.000199099 0)
(0.0974872 0.000210418 0)
(0.0974432 0.000226299 0)
(0.097397 0.000247407 0)
(0.0973483 0.000274469 0)
(0.0972968 0.000308279 0)
(0.097242 0.000349706 0)
(0.0971837 0.000399702 0)
(0.0971216 0.000459309 0)
(0.0970553 0.000529671 0)
(0.0969848 0.000612042 0)
(0.09691 0.000707801 0)
(0.0968308 0.000818455 0)
(0.0967473 0.000945655 0)
(0.0966599 0.0010912 0)
(0.0965692 0.00125704 0)
(0.0964758 0.00144528 0)
(0.0963808 0.00165816 0)
(0.0962859 0.00189804 0)
(0.096193 0.00216736 0)
(0.0961045 0.00246857 0)
(0.0960237 0.00280407 0)
(0.0959545 0.00317608 0)
(0.0959015 0.00358645 0)
(0.0958703 0.00403649 0)
(0.0958674 0.00452672 0)
(0.0958998 0.00505653 0)
(0.0959756 0.00562386 0)
(0.0961028 0.0062248 0)
(0.0962898 0.00685327 0)
(0.0965441 0.00750068 0)
(0.0968718 0.00815582 0)
(0.0972767 0.00880491 0)
(0.0977589 0.00943212 0)
(0.0983145 0.0100206 0)
(0.098934 0.0105542 0)
(0.100003 -2.58007e-05 0)
(0.100015 -3.07301e-05 0)
(0.10003 -5.82804e-06 0)
(0.10004 4.95849e-05 0)
(0.100038 0.000128032 0)
(0.10002 0.000215504 0)
(0.0999817 0.000296703 0)
(0.0999238 0.000360325 0)
(0.0998492 0.000401689 0)
(0.0997625 0.000422224 0)
(0.0996686 0.000427048 0)
(0.0995717 0.000422278 0)
(0.099475 0.000413149 0)
(0.0993806 0.000403202 0)
(0.0992895 0.000394309 0)
(0.099202 0.000387098 0)
(0.0991183 0.000381468 0)
(0.0990381 0.000376999 0)
(0.0989611 0.000373208 0)
(0.0988871 0.000369678 0)
(0.0988158 0.000366099 0)
(0.098747 0.000362264 0)
(0.0986806 0.000358043 0)
(0.0986165 0.000353365 0)
(0.0985546 0.000348192 0)
(0.0984948 0.000342512 0)
(0.098437 0.000336325 0)
(0.0983812 0.000329647 0)
(0.0983273 0.000322502 0)
(0.0982751 0.000314928 0)
(0.0982246 0.000306977 0)
(0.0981757 0.000298719 0)
(0.0981283 0.000290242 0)
(0.0980822 0.000281658 0)
(0.0980373 0.000273106 0)
(0.0979934 0.000264749 0)
(0.0979504 0.000256783 0)
(0.097908 0.000249435 0)
(0.097866 0.000242964 0)
(0.0978244 0.000237666 0)
(0.0977827 0.000233872 0)
(0.0977408 0.000231951 0)
(0.0976984 0.000232311 0)
(0.0976553 0.000235401 0)
(0.0976112 0.000241712 0)
(0.0975658 0.000251778 0)
(0.0975188 0.000266181 0)
(0.0974701 0.000285552 0)
(0.0974193 0.000310574 0)
(0.0973661 0.000341985 0)
(0.0973104 0.000380584 0)
(0.097252 0.000427234 0)
(0.0971906 0.000482868 0)
(0.0971262 0.000548493 0)
(0.0970588 0.000625194 0)
(0.0969883 0.000714143 0)
(0.096915 0.000816596 0)
(0.096839 0.0009339 0)
(0.0967609 0.00106749 0)
(0.0966812 0.00121888 0)
(0.0966008 0.00138967 0)
(0.0965207 0.00158151 0)
(0.0964424 0.00179607 0)
(0.0963677 0.00203503 0)
(0.0962986 0.0023 0)
(0.0962379 0.00259247 0)
(0.0961886 0.0029137 0)
(0.0961544 0.00326464 0)
(0.0961393 0.00364575 0)
(0.096148 0.00405689 0)
(0.0961856 0.00449712 0)
(0.0962575 0.00496453 0)
(0.0963691 0.00545601 0)
(0.0965258 0.00596718 0)
(0.0967328 0.00649219 0)
(0.0969939 0.00702371 0)
(0.0973121 0.00755305 0)
(0.0976883 0.00807038 0)
(0.0981214 0.00856516 0)
(0.0986075 0.00902687 0)
(0.09914 0.00944594 0)
(0.100003 -2.94132e-05 0)
(0.100015 -3.65215e-05 0)
(0.10003 -1.13714e-05 0)
(0.100043 4.71051e-05 0)
(0.100045 0.000131441 0)
(0.100032 0.000227019 0)
(0.100001 0.000317412 0)
(0.0999507 0.000390018 0)
(0.0998836 0.000439084 0)
(0.0998036 0.000465422 0)
(0.0997153 0.000474024 0)
(0.0996229 0.000471253 0)
(0.0995298 0.000462776 0)
(0.0994382 0.000452602 0)
(0.0993494 0.000442996 0)
(0.0992639 0.000434874 0)
(0.099182 0.000428314 0)
(0.0991035 0.000422987 0)
(0.0990282 0.000418445 0)
(0.0989557 0.000414275 0)
(0.098886 0.000410154 0)
(0.0988187 0.000405856 0)
(0.0987537 0.000401236 0)
(0.0986908 0.000396209 0)
(0.09863 0.000390731 0)
(0.0985711 0.000384784 0)
(0.0985141 0.000378371 0)
(0.0984588 0.000371509 0)
(0.0984051 0.000364231 0)
(0.0983529 0.000356582 0)
(0.0983022 0.000348625 0)
(0.0982527 0.000340442 0)
(0.0982044 0.000332136 0)
(0.0981571 0.000323835 0)
(0.0981107 0.000315691 0)
(0.098065 0.000307888 0)
(0.0980198 0.000300637 0)
(0.0979749 0.000294187 0)
(0.0979302 0.000288814 0)
(0.0978854 0.000284835 0)
(0.0978403 0.0002826 0)
(0.0977948 0.000282498 0)
(0.0977485 0.000284957 0)
(0.0977014 0.000290443 0)
(0.0976531 0.000299462 0)
(0.0976035 0.000312563 0)
(0.0975523 0.000330337 0)
(0.0974995 0.000353418 0)
(0.0974447 0.000382488 0)
(0.0973879 0.000418275 0)
(0.0973291 0.000461556 0)
(0.097268 0.000513159 0)
(0.0972048 0.000573964 0)
(0.0971394 0.000644905 0)
(0.0970721 0.000726969 0)
(0.097003 0.000821197 0)
(0.0969326 0.000928677 0)
(0.0968612 0.00105054 0)
(0.0967897 0.00118796 0)
(0.0967187 0.00134213 0)
(0.0966493 0.00151425 0)
(0.0965828 0.00170547 0)
(0.0965209 0.00191694 0)
(0.0964652 0.00214966 0)
(0.0964179 0.00240451 0)
(0.0963815 0.00268214 0)
(0.0963588 0.00298291 0)
(0.0963529 0.0033068 0)
(0.0963671 0.00365334 0)
(0.0964051 0.00402145 0)
(0.0964706 0.00440939 0)
(0.0965674 0.00481468 0)
(0.0966991 0.00523396 0)
(0.0968689 0.00566304 0)
(0.0970796 0.00609685 0)
(0.0973331 0.00652952 0)
(0.0976303 0.00695454 0)
(0.0979708 0.007365 0)
(0.0983531 0.00775387 0)
(0.0987736 0.00811448 0)
(0.0992278 0.00844103 0)
(0.100003 -3.32453e-05 0)
(0.100015 -4.28401e-05 0)
(0.100031 -1.78448e-05 0)
(0.100044 4.32296e-05 0)
(0.10005 0.000133037 0)
(0.100042 0.000236493 0)
(0.100016 0.000336144 0)
(0.099973 0.00041811 0)
(0.0999129 0.000475489 0)
(0.0998396 0.000508356 0)
(0.0997572 0.000521452 0)
(0.0996698 0.000521293 0)
(0.0995808 0.000513933 0)
(0.0994925 0.000503842 0)
(0.0994065 0.000493703 0)
(0.0993235 0.000484753 0)
(0.0992437 0.000477282 0)
(0.0991671 0.000471085 0)
(0.0990936 0.000465772 0)
(0.0990229 0.000460946 0)
(0.0989547 0.00045628 0)
(0.0988889 0.000451536 0)
(0.0988252 0.000446555 0)
(0.0987635 0.000441239 0)
(0.0987037 0.000435539 0)
(0.0986456 0.000429432 0)
(0.0985892 0.000422922 0)
(0.0985342 0.00041603 0)
(0.0984806 0.000408794 0)
(0.0984283 0.000401271 0)
(0.0983772 0.000393534 0)
(0.098327 0.000385677 0)
(0.0982777 0.000377817 0)
(0.0982291 0.000370096 0)
(0.0981811 0.000362684 0)
(0.0981334 0.000355777 0)
(0.098086 0.000349605 0)
(0.0980387 0.000344429 0)
(0.0979911 0.000340545 0)
(0.0979433 0.000338282 0)
(0.097895 0.000338004 0)
(0.097846 0.000340113 0)
(0.0977962 0.000345046 0)
(0.0977453 0.000353277 0)
(0.0976933 0.000365317 0)
(0.09764 0.000381713 0)
(0.0975852 0.000403049 0)
(0.097529 0.000429948 0)
(0.0974711 0.000463066 0)
(0.0974116 0.000503098 0)
(0.0973506 0.000550774 0)
(0.097288 0.000606858 0)
(0.097224 0.000672147 0)
(0.0971589 0.000747469 0)
(0.0970929 0.000833675 0)
(0.0970264 0.000931642 0)
(0.0969599 0.00104226 0)
(0.0968942 0.00116641 0)
(0.0968299 0.00130497 0)
(0.0967681 0.00145881 0)
(0.0967099 0.0016287 0)
(0.0966567 0.00181538 0)
(0.0966098 0.00201944 0)
(0.0965712 0.00224135 0)
(0.0965428 0.00248137 0)
(0.0965267 0.00273949 0)
(0.0965252 0.00301542 0)
(0.0965409 0.00330852 0)
(0.0965764 0.00361771 0)
(0.0966342 0.00394144 0)
(0.096717 0.00427767 0)
(0.0968273 0.00462379 0)
(0.0969671 0.00497666 0)
(0.0971384 0.00533261 0)
(0.0973424 0.00568749 0)
(0.0975798 0.00603679 0)
(0.0978504 0.00637572 0)
(0.0981534 0.00669946 0)
(0.0984869 0.00700329 0)
(0.0988483 0.00728291 0)
(0.099234 0.00753468 0)
(0.100003 -3.72742e-05 0)
(0.100014 -4.96175e-05 0)
(0.10003 -2.51186e-05 0)
(0.100045 3.81487e-05 0)
(0.100053 0.000133038 0)
(0.100048 0.000244119 0)
(0.100028 0.000353012 0)
(0.0999904 0.000444589 0)
(0.0999368 0.000510762 0)