/*--------------------------------*- C++ -*----------------------------------*\
| =========                 |                                                 |
| \\      /  F ield         | OpenFOAM: The Open Source CFD Toolbox           |
|  \\    /   O peration     | Version:  5.x                                   |
|   \\  /    A nd           | Web:      www.OpenFOAM.org                      |
|    \\/     M anipulation  |                                                 |
\*---------------------------------------------------------------------------*/
FoamFile
{
    version     2.0;
    format      ascii;
    class       volScalarField;
    location    "0.2";
    object      gradTx;
}
// * * * * * * * * * * * * * * * * * * * * * * * * * * * * * * * * * * * * * //

dimensions      [0 -1 0 1 0 0 0];

internalField   nonuniform List<scalar> 
512
(
0.00577317
0.0161489
0.0234906
0.0271467
0.0275
0.0255098
0.0222161
0.0184415
0.0147694
0.0114788
0.00869448
0.00642733
0.00461855
0.00318021
0.00201858
0.00104355
0.000170613
-0.000680326
-0.00158719
-0.00262762
-0.00387879
-0.00541288
-0.0072851
-0.00951085
-0.0120289
-0.0146509
-0.0170073
-0.0185183
-0.0184434
-0.016077
-0.0111051
-0.00398323
0.0176155
0.049212
0.0714138
0.0822883
0.0831124
0.0768788
0.0667881
0.0553211
0.044222
0.0343198
0.0259657
0.0191771
0.0137697
0.0094757
0.00601175
0.00310662
0.000506764
-0.00202765
-0.00473001
-0.00783335
-0.0115704
-0.0161607
-0.0217756
-0.0284705
-0.036074
-0.0440343
-0.0512495
-0.0559672
-0.0559167
-0.0488916
-0.0338565
-0.0121612
0.0303809
0.0846469
0.122233
0.140011
0.140568
0.129288
0.111761
0.0921757
0.0734103
0.0568062
0.0428795
0.0316097
0.0226623
0.0155767
0.00987347
0.00509797
0.000827905
-0.00333493
-0.00777809
-0.0128902
-0.019063
-0.0266722
-0.0360224
-0.0472359
-0.0600695
-0.0736489
-0.0861638
-0.0946545
-0.0951736
-0.0837364
-0.058284
-0.0209971
0.0448075
0.124295
0.178117
0.202158
0.201109
0.183393
0.157339
0.128935
0.102126
0.0786813
0.059185
0.0435073
0.0311222
0.0213541
0.0135173
0.00697085
0.00112461
-0.00457531
-0.0106681
-0.017698
-0.0262206
-0.0367821
-0.0498475
-0.065652
-0.0839447
-0.103604
-0.122162
-0.13541
-0.137484
-0.12213
-0.0856907
-0.0310136
0.0618364
0.170429
0.241604
0.270759
0.265995
0.23978
0.20364
0.165451
0.130106
0.0996543
0.0746131
0.0546445
0.0389734
0.0266795
0.0168584
0.00867989
0.00138816
-0.00572179
-0.0133367
-0.022155
-0.0329022
-0.0463131
-0.0630501
-0.083524
-0.107571
-0.133939
-0.159598
-0.179063
-0.184242
-0.165864
-0.117699
-0.0428828
0.0827463
0.226022
0.315802
0.348087
0.336477
0.29891
0.250637
0.20146
0.157006
0.119388
0.0888713
0.0647865
0.0460382
0.0314265
0.0198147
0.0101817
0.00161073
-0.00674745
-0.0157206
-0.0261583
-0.038961
-0.0550727
-0.075398
-0.100602
-0.130736
-0.164586
-0.198725
-0.226427
-0.237016
-0.217147
-0.156449
-0.0575243
0.109364
0.295136
0.404624
0.436711
0.413742
0.361039
0.298097
0.236539
0.18238
0.137487
0.10164
0.0736887
0.0521382
0.0354714
0.0223072
0.0114354
0.00178552
-0.00762581
-0.0177576
-0.0296043
-0.0442442
-0.0628514
-0.0866222
-0.11657
-0.153118
-0.195326
-0.239639
-0.278248
-0.297573
-0.278786
-0.204883
-0.0762549
0.144411
0.383521
0.513092
0.539493
0.498803
0.426108
0.345501
0.270063
0.205661
0.153493
0.112571
0.0810985
0.0570967
0.0386958
0.0242625
0.0124036
0.00190686
-0.00833149
-0.019388
-0.0323913
-0.0485953
-0.0694231
-0.0964136
-0.131028
-0.174254
-0.225736
-0.282196
-0.335115
-0.367878
-0.354416
-0.267175
-0.101032
0.192098
0.499558
0.647703
0.659514
0.592308
0.493587
0.391957
0.30116
0.22614
0.166882
0.121293
0.0867594
0.0607425
0.040989
0.0256136
0.0130533
0.0019703
-0.00884098
-0.0205564
-0.0344218
-0.0518569
-0.0745479
-0.104424
-0.143493
-0.193521
-0.255129
-0.325896
-0.397297
-0.450026
-0.448772
-0.349411
-0.134869
0.259186
0.655773
0.816827
0.799829
0.69423
0.562284
0.4361
0.328681
0.242966
0.17707
0.127418
0.0904191
0.0629161
0.0422529
0.0263031
0.0133572
0.00197278
-0.00913362
-0.0212141
-0.0356074
-0.053877
-0.0779787
-0.110274
-0.153395
-0.210111
-0.282492
-0.369743
-0.464486
-0.546028
-0.568018
-0.46069
-0.182575
0.356923
0.871329
1.03101
0.962923
0.803395
0.6301
0.476006
0.351177
0.255154
0.183435
0.130561
0.09184
0.063478
0.0424065
0.0262856
0.013295
0.00191289
-0.00919255
-0.0213219
-0.035874
-0.0545158
-0.0794699
-0.113565
-0.160088
-0.223024
-0.30643
-0.412069
-0.535383
-0.657361
-0.720039
-0.614942
-0.252099
0.504707
1.17616
1.30287
1.14961
0.916787
0.693766
0.50912
0.366908
0.261609
0.185345
0.130357
0.0908128
0.0623189
0.0413925
0.0255309
0.0128557
0.00179102
-0.00900563
-0.0208534
-0.0351701
-0.0536561
-0.0787889
-0.113903
-0.16288
-0.231079
-0.325134
-0.450383
-0.607097
-0.784053
-0.914534
-0.833959
-0.357037
0.737167
1.61792
1.64567
1.35707
1.02864
0.748591
0.53222
0.373885
0.261171
0.182209
0.126492
0.0871683
0.0593712
0.039183
0.0240249
0.0120388
0.00160929
-0.00856618
-0.0197969
-0.0334762
-0.0512151
-0.0757275
-0.110934
-0.161078
-0.232947
-0.336397
-0.481293
-0.674314
-0.922991
-1.16243
-1.15251
-0.521403
1.11826
2.27383
2.06874
1.57553
1.1294
0.788339
0.541468
0.369962
0.252672
0.17354
0.11873
0.0807865
0.0546224
0.0357847
0.0217698
0.0108568
0.00137075
-0.00787311
-0.0181574
-0.030819
-0.0471599
-0.0701063
-0.104388
-0.15406
-0.227212
-0.337686
-0.500686
-0.728263
-1.06497
-1.47342
-1.62702
-0.78896
1.76997
3.271
2.56523
1.78349
1.205
0.805461
0.532579
0.353009
0.235017
0.159068
0.106948
0.0715981
0.0481381
0.0312452
0.0187799
0.00934025
0.00107761
-0.00692991
-0.0159512
-0.0272914
-0.0415291
-0.0617603
-0.0941491
-0.141388
-0.212447
-0.326254
-0.5045
-0.755649
-1.18985
-1.8491
-2.35035
-1.24189
2.93207
4.82146
3.08245
1.94217
1.23715
0.791932
0.501121
0.321211
0.207238
0.138913
0.0911647
0.0595683
0.0401023
0.0256588
0.0150709
0.00754981
0.000726113
-0.00574243
-0.013191
-0.0230854
-0.03447
-0.0504756
-0.0803445
-0.122972
-0.187301
-0.299144
-0.490692
-0.738058
-1.25946
-2.26554
-3.47733
-2.03914
)
;

boundaryField
{
    left
    {
        type            calculated;
        value           uniform 0;
    }
    right
    {
        type            calculated;
        value           uniform 0;
    }
    interface
    {
        type            calculated;
        value           nonuniform List<scalar> 
32
(
2.93207
4.82146
3.08245
1.94217
1.23715
0.791932
0.501121
0.321211
0.207238
0.138913
0.0911647
0.0595683
0.0401023
0.0256588
0.0150709
0.00754981
0.000726113
-0.00574243
-0.013191
-0.0230854
-0.03447
-0.0504756
-0.0803445
-0.122972
-0.187301
-0.299144
-0.490692
-0.738058
-1.25946
-2.26554
-3.47733
-2.03914
)
;
    }
    bottom
    {
        type            calculated;
        value           nonuniform List<scalar> 
32
(
0.00577317
0.0161489
0.0234906
0.0271467
0.0275
0.0255098
0.0222161
0.0184415
0.0147694
0.0114788
0.00869448
0.00642733
0.00461855
0.00318021
0.00201858
0.00104355
0.000170613
-0.000680326
-0.00158719
-0.00262762
-0.00387879
-0.00541288
-0.0072851
-0.00951085
-0.0120289
-0.0146509
-0.0170073
-0.0185183
-0.0184434
-0.016077
-0.0111051
-0.00398323
)
;
    }
    defaultFaces
    {
        type            empty;
    }
}


// ************************************************************************* //
