/*--------------------------------*- C++ -*----------------------------------*\
| =========                 |                                                 |
| \\      /  F ield         | OpenFOAM: The Open Source CFD Toolbox           |
|  \\    /   O peration     | Version:  5.x                                   |
|   \\  /    A nd           | Web:      www.OpenFOAM.org                      |
|    \\/     M anipulation  |                                                 |
\*---------------------------------------------------------------------------*/
FoamFile
{
    version     2.0;
    format      ascii;
    class       surfaceScalarField;
    location    "1";
    object      phi;
}
// * * * * * * * * * * * * * * * * * * * * * * * * * * * * * * * * * * * * * //

dimensions      [1 0 -1 0 0 0 0];

internalField   nonuniform List<scalar> 
23692
(
9.30943e-05
-1.47402e-08
9.31179e-05
-2.34966e-08
9.31437e-05
-2.56517e-08
9.31643e-05
-2.03974e-08
9.3173e-05
-8.45319e-09
9.31651e-05
8.2231e-09
9.31388e-05
2.67254e-08
9.30953e-05
4.39686e-08
9.30383e-05
5.75455e-08
9.29727e-05
6.62198e-08
9.29035e-05
6.99503e-08
9.28347e-05
6.95686e-08
9.27693e-05
6.63065e-08
9.27089e-05
6.13979e-08
9.26542e-05
5.58254e-08
9.26051e-05
5.02263e-08
9.25615e-05
4.49313e-08
9.25229e-05
4.00375e-08
9.2489e-05
3.55099e-08
9.24594e-05
3.12541e-08
9.2434e-05
2.71645e-08
9.24128e-05
2.31492e-08
9.23957e-05
1.91454e-08
9.23828e-05
1.5116e-08
9.23741e-05
1.10398e-08
9.23696e-05
6.91547e-09
9.23694e-05
2.74694e-09
9.23736e-05
-1.45348e-09
9.23821e-05
-5.67012e-09
9.2395e-05
-9.88747e-09
9.24122e-05
-1.40838e-08
9.24337e-05
-1.82433e-08
9.24594e-05
-2.2341e-08
9.24893e-05
-2.6356e-08
9.25231e-05
-3.02633e-08
9.25609e-05
-3.40355e-08
9.26024e-05
-3.76405e-08
9.26474e-05
-4.10505e-08
9.26957e-05
-4.4224e-08
9.2747e-05
-4.71243e-08
9.28009e-05
-4.9708e-08
9.28572e-05
-5.19295e-08
9.29154e-05
-5.37358e-08
9.2975e-05
-5.50769e-08
9.30355e-05
-5.58906e-08
9.30963e-05
-5.61142e-08
9.31567e-05
-5.56794e-08
9.3216e-05
-5.45099e-08
9.32734e-05
-5.25249e-08
9.33279e-05
-4.96336e-08
9.33786e-05
-4.57317e-08
9.34243e-05
-4.07107e-08
9.34638e-05
-3.44411e-08
9.34956e-05
-2.67775e-08
9.35183e-05
-1.75535e-08
9.353e-05
-6.57449e-09
9.35287e-05
6.38632e-09
9.35123e-05
2.15998e-08
9.34781e-05
3.93856e-08
9.34231e-05
6.01287e-08
9.3344e-05
8.43033e-08
9.32366e-05
1.12486e-07
9.30964e-05
1.454e-07
9.29176e-05
1.83949e-07
9.26935e-05
2.29287e-07
9.24157e-05
2.82902e-07
9.2074e-05
3.46738e-07
9.16557e-05
4.2338e-07
9.11445e-05
5.16319e-07
9.05191e-05
6.30356e-07
8.97519e-05
7.72224e-07
8.88053e-05
9.51557e-07
8.76278e-05
1.18244e-06
8.61468e-05
1.48588e-06
8.42577e-05
1.89394e-06
8.18062e-05
2.45634e-06
7.85598e-05
3.25115e-06
7.41617e-05
4.40279e-06
6.80426e-05
6.12378e-06
5.923e-05
8.81721e-06
1.35603e-05
4.56743e-05
9.9615e-05
-3.03453e-08
9.96403e-05
-4.87001e-08
9.9668e-05
-5.32827e-08
9.96903e-05
-4.24875e-08
9.97e-05
-1.78437e-08
9.9692e-05
1.66203e-08
9.96642e-05
5.4901e-08
9.96181e-05
9.06217e-08
9.95574e-05
1.18788e-07
9.94875e-05
1.36827e-07
9.94135e-05
1.44643e-07
9.934e-05
1.43939e-07
9.927e-05
1.37266e-07
9.92053e-05
1.27171e-07
9.91466e-05
1.15684e-07
9.9094e-05
1.04132e-07
9.90472e-05
9.32006e-08
9.90056e-05
8.30943e-08
9.89691e-05
7.37449e-08
9.89372e-05
6.4955e-08
9.89097e-05
5.65099e-08
9.88867e-05
4.82244e-08
9.88681e-05
3.99669e-08
9.88539e-05
3.16567e-08
9.88442e-05
2.32573e-08
9.8839e-05
1.47579e-08
9.88383e-05
6.1711e-09
9.88423e-05
-2.47517e-09
9.88508e-05
-1.11546e-08
9.88639e-05
-1.98276e-08
9.88816e-05
-2.84606e-08
9.89039e-05
-3.70087e-08
9.89306e-05
-4.54301e-08
9.89616e-05
-5.36761e-08
9.89969e-05
-6.1695e-08
9.90363e-05
-6.94329e-08
9.90796e-05
-7.68266e-08
9.91266e-05
-8.38066e-08
9.9177e-05
-9.03005e-08
9.92306e-05
-9.62269e-08
9.92869e-05
-1.01498e-07
9.93457e-05
-1.06016e-07
9.94064e-05
-1.09679e-07
9.94685e-05
-1.12375e-07
9.95315e-05
-1.13983e-07
9.95948e-05
-1.14372e-07
9.96576e-05
-1.134e-07
9.97191e-05
-1.10913e-07
9.97785e-05
-1.06741e-07
9.98348e-05
-1.00698e-07
9.9887e-05
-9.25791e-08
9.99338e-05
-8.21511e-08
9.99739e-05
-6.91539e-08
0.000100006
-5.32917e-08
0.000100028
-3.42239e-08
0.000100038
-1.15514e-08
0.000100035
1.5183e-08
0.000100016
4.65287e-08
9.99774e-05
8.3131e-08
9.99173e-05
1.25772e-07
9.98318e-05
1.75398e-07
9.97166e-05
2.3317e-07
9.9567e-05
3.00528e-07
9.93772e-05
3.79271e-07
9.91403e-05
4.71678e-07
9.8848e-05
5.80667e-07
9.84902e-05
7.10028e-07
9.80542e-05
8.64744e-07
9.75245e-05
1.05147e-06
9.6881e-05
1.27924e-06
9.60981e-05
1.56047e-06
9.51424e-05
1.91258e-06
9.39698e-05
2.36029e-06
9.25217e-05
2.93917e-06
9.072e-05
3.70086e-06
8.84613e-05
4.72021e-06
8.56141e-05
6.10346e-06
8.20276e-05
7.9943e-06
7.75825e-05
1.05739e-05
7.24125e-05
1.39921e-05
1.78391e-05
6.81386e-05
0.000106592
-4.68381e-08
0.000106619
-7.57552e-08
0.000106649
-8.30624e-08
0.000106674
-6.657e-08
0.000106685
-2.8573e-08
0.000106677
2.47234e-08
0.000106648
8.40407e-08
0.0001066
1.39511e-07
0.000106536
1.83376e-07
0.000106462
2.11611e-07
0.000106383
2.2402e-07
0.000106305
2.23208e-07
0.00010623
2.13098e-07
0.000106161
1.97631e-07
0.000106098
1.7995e-07
0.000106041
1.62125e-07
0.000105991
1.45222e-07
0.000105946
1.29584e-07
0.000105906
1.1511e-07
0.000105872
1.01505e-07
0.000105842
8.84389e-08
0.000105817
7.56289e-08
0.000105796
6.28716e-08
0.00010578
5.00465e-08
0.000105769
3.709e-08
0.000105763
2.39913e-08
0.000105761
1.07697e-08
0.000105764
-2.54116e-09
0.000105772
-1.58887e-08
0.000105785
-2.92221e-08
0.000105803
-4.24814e-08
0.000105825
-5.5603e-08
0.000105852
-6.85197e-08
0.000105883
-8.11568e-08
0.000105919
-9.34349e-08
0.000105959
-1.05268e-07
0.000106003
-1.1656e-07
0.000106051
-1.27206e-07
0.000106103
-1.37091e-07
0.000106157
-1.46089e-07
0.000106215
-1.54065e-07
0.000106275
-1.60872e-07
0.000106336
-1.6635e-07
0.0001064
-1.70327e-07
0.000106463
-1.72615e-07
0.000106527
-1.73014e-07
0.000106591
-1.71307e-07
0.000106653
-1.67256e-07
0.000106712
-1.60603e-07
0.000106768
-1.51063e-07
0.000106819
-1.38319e-07
0.000106865
-1.22019e-07
0.000106903
-1.01767e-07
0.000106933
-7.71103e-08
0.000106952
-4.75327e-08
0.000106959
-1.24355e-08
0.000106951
2.88777e-08
0.000106926
7.72245e-08
0.000106882
1.33575e-07
0.000106814
1.9909e-07
0.00010672
2.75177e-07
0.000106596
3.63549e-07
0.000106436
4.66313e-07
0.000106235
5.86087e-07
0.000105987
7.26155e-07
0.000105682
8.90683e-07
0.000105313
1.08501e-06
0.000104868
1.31605e-06
0.000104332
1.59289e-06
0.00010369
1.92754e-06
0.00010292
2.33616e-06
0.000101997
2.84057e-06
0.000100893
3.47048e-06
9.95712e-05
4.26638e-06
9.79947e-05
5.28287e-06
9.61288e-05
6.5916e-06
9.39575e-05
8.28031e-06
9.15169e-05
1.04403e-05
8.89716e-05
1.31245e-05
8.67568e-05
1.62123e-05
1.90227e-05
8.55784e-05
0.000114058
-6.42877e-08
0.000114087
-1.04764e-07
0.00011412
-1.1522e-07
0.000114147
-9.30203e-08
0.000114159
-4.11669e-08
0.000114153
3.188e-08
0.000114124
1.13438e-07
0.000114074
1.89957e-07
0.000114007
2.5074e-07
0.000113929
2.9017e-07
0.000113846
3.0788e-07
0.000113763
3.07364e-07
0.000113683
2.93959e-07
0.000113609
2.73052e-07
0.000113542
2.48979e-07
0.000113481
2.24599e-07
0.000113426
2.01419e-07
0.000113377
1.79929e-07
0.000113334
1.60022e-07
0.000113297
1.4131e-07
0.000113264
1.2335e-07
0.000113236
1.0576e-07
0.000113213
8.82659e-08
0.000113195
7.06979e-08
0.000113182
5.29726e-08
0.000113174
3.5073e-08
0.000113171
1.70217e-08
0.000113173
-1.13094e-09
0.00011318
-1.93179e-08
0.000113192
-3.74659e-08
0.000113209
-5.54956e-08
0.00011323
-7.33203e-08
0.000113257
-9.08442e-08
0.000113288
-1.07968e-07
0.000113324
-1.24583e-07
0.000113363
-1.40569e-07
0.000113407
-1.55795e-07
0.000113455
-1.70117e-07
0.000113506
-1.83378e-07
0.000113561
-1.95407e-07
0.000113618
-2.06017e-07
0.000113677
-2.15008e-07
0.000113739
-2.22161e-07
0.000113801
-2.27242e-07
0.000113864
-2.29997e-07
0.000113927
-2.30154e-07
0.000113989
-2.27415e-07
0.000114049
-2.2146e-07
0.000114106
-2.11938e-07
0.00011416
-1.98465e-07
0.000114208
-1.80613e-07
0.00011425
-1.5791e-07
0.000114284
-1.29822e-07
0.000114309
-9.57456e-08
0.000114323
-5.49917e-08
0.000114323
-6.76548e-09
0.000114309
4.98527e-08
0.000114276
1.15935e-07
0.000114223
1.92752e-07
0.000114147
2.81815e-07
0.000114044
3.84938e-07
0.000113909
5.04314e-07
0.000113739
6.42618e-07
0.000113528
8.03136e-07
0.000113271
9.8994e-07
0.00011296
1.20812e-06
0.000112587
1.46408e-06
0.000112143
1.76595e-06
0.000111618
2.12415e-06
0.000111
2.55207e-06
0.000110275
3.06701e-06
0.00010943
3.69137e-06
0.000108453
4.45397e-06
0.000107334
5.39138e-06
0.000106074
6.54848e-06
0.000104695
7.97677e-06
0.000103255
9.72655e-06
0.000101874
1.18262e-05
0.000100768
1.42362e-05
0.000100233
1.67537e-05
1.88545e-05
0.000100406
0.000122047
-8.27671e-08
0.000122079
-1.3586e-07
0.000122114
-1.50041e-07
0.000122143
-1.22295e-07
0.000122159
-5.62836e-08
0.000122154
3.72639e-08
0.000122125
1.42158e-07
0.000122075
2.41024e-07
0.000122006
3.20052e-07
0.000121926
3.71866e-07
0.000121839
3.95823e-07
0.000121751
3.96251e-07
0.000121666
3.799e-07
0.000121587
3.5366e-07
0.000121514
3.231e-07
0.000121448
2.91954e-07
0.000121389
2.62206e-07
0.000121336
2.3455e-07
0.00012129
2.0889e-07
0.000121248
1.84765e-07
0.000121212
1.61626e-07
0.000121182
1.38995e-07
0.000121156
1.16526e-07
0.000121136
9.3998e-08
0.00012112
7.13091e-08
0.00012111
4.84312e-08
0.000121105
2.53914e-08
0.000121105
2.25529e-09
0.000121111
-2.08959e-08
0.000121121
-4.39678e-08
0.000121137
-6.68573e-08
0.000121157
-8.94537e-08
0.000121182
-1.11635e-07
0.000121212
-1.33273e-07
0.000121246
-1.54227e-07
0.000121285
-1.74343e-07
0.000121328
-1.93455e-07
0.000121374
-2.11375e-07
0.000121424
-2.27905e-07
0.000121477
-2.42824e-07
0.000121532
-2.55897e-07
0.00012159
-2.66866e-07
0.000121649
-2.75453e-07
0.000121709
-2.81361e-07
0.000121769
-2.84267e-07
0.000121829
-2.83824e-07
0.000121888
-2.7966e-07
0.000121944
-2.71366e-07
0.000121997
-2.58505e-07
0.000122045
-2.40589e-07
0.000122088
-2.17087e-07
0.000122124
-1.87406e-07
0.000122152
-1.50884e-07
0.00012217
-1.06773e-07
0.000122175
-5.42236e-08
0.000122168
7.73978e-09
0.000122144
8.02322e-08
0.000122102
1.64552e-07
0.000122039
2.62226e-07
0.000121953
3.75055e-07
0.00012184
5.05178e-07
0.000121695
6.55156e-07
0.000121517
8.28071e-07
0.000121299
1.02766e-06
0.000121037
1.25846e-06
0.000120726
1.52607e-06
0.000120359
1.83733e-06
0.000119931
2.20073e-06
0.000119435
2.62678e-06
0.000118865
3.12849e-06
0.000118217
3.72193e-06
0.000117488
4.42673e-06
0.000116682
5.26646e-06
0.000115812
6.26842e-06
0.000114904
7.46213e-06
0.000114012
8.87516e-06
0.000113221
1.05236e-05
0.00011266
1.23938e-05
0.000112492
1.44104e-05
0.000112862
1.63893e-05
1.79927e-05
0.00011373
0.000130596
-1.02355e-07
0.000130629
-1.69197e-07
0.000130667
-1.8783e-07
0.0001307
-1.54923e-07
0.000130719
-7.47054e-08
0.000130717
3.98566e-08
0.000130691
1.69035e-07
0.000130641
2.91529e-07
0.000130571
3.9023e-07
0.000130488
4.55837e-07
0.000130398
4.87261e-07
0.000130306
4.89563e-07
0.000130216
4.70873e-07
0.000130131
4.39591e-07
0.000130054
4.02596e-07
0.000129983
3.64545e-07
0.000129919
3.27978e-07
0.000129861
2.93844e-07
0.00012981
2.62103e-07
0.000129765
2.32242e-07
0.000129726
2.03626e-07
0.000129692
1.75685e-07
0.000129663
1.48001e-07
0.00012964
1.20309e-07
0.000129622
9.2476e-08
0.000129609
6.44657e-08
0.000129602
3.63112e-08
0.0001296
8.08619e-09
0.000129603
-2.01099e-08
0.000129612
-4.81611e-08
0.000129625
-7.59427e-08
0.000129644
-1.03316e-07
0.000129667
-1.30134e-07
0.000129695
-1.56239e-07
0.000129727
-1.81455e-07
0.000129763
-2.05595e-07
0.000129804
-2.28452e-07
0.000129848
-2.49801e-07
0.000129895
-2.69394e-07
0.000129945
-2.86966e-07
0.000129997
-3.02225e-07
0.000130051
-3.1486e-07
0.000130106
-3.24536e-07
0.000130162
-3.30887e-07
0.000130218
-3.33524e-07
0.000130273
-3.32032e-07
0.000130326
-3.25956e-07
0.000130376
-3.14811e-07
0.000130422
-2.98067e-07
0.000130464
-2.75148e-07
0.000130499
-2.45418e-07
0.000130527
-2.08177e-07
0.000130546
-1.62645e-07
0.000130554
-1.07947e-07
0.00013055
-4.30912e-08
0.000130532
3.30416e-08
0.000130497
1.21729e-07
0.000130445
2.2445e-07
0.000130371
3.42918e-07
0.000130274
4.79139e-07
0.000130151
6.35462e-07
0.000129999
8.14661e-07
0.000129814
1.02002e-06
0.000129594
1.25545e-06
0.000129334
1.5256e-06
0.000129031
1.83605e-06
0.000128682
2.19346e-06
0.000128284
2.60579e-06
0.000127836
3.0825e-06
0.000127336
3.63479e-06
0.00012679
4.27567e-06
0.000126203
5.01997e-06
0.000125593
5.88391e-06
0.000124984
6.88399e-06
0.000124418
8.03469e-06
0.000123956
9.344e-06
0.000123681
1.08058e-05
0.000123694
1.23875e-05
0.000124097
1.40136e-05
0.000124945
1.55478e-05
1.67893e-05
0.000126155
0.000139743
-1.23116e-07
0.000139779
-2.04926e-07
0.000139821
-2.28923e-07
0.000139857
-1.91492e-07
0.00013988
-9.73173e-08
0.000139882
3.84912e-08
0.000139859
1.92709e-07
0.000139811
3.40037e-07
0.000139743
4.59946e-07
0.000139658
5.40977e-07
0.000139565
5.81381e-07
0.000139469
5.86804e-07
0.000139375
5.66673e-07
0.000139285
5.30884e-07
0.000139202
4.87666e-07
0.000139125
4.42674e-07
0.000139056
3.99088e-07
0.000138994
3.5818e-07
0.000138938
3.2002e-07
0.000138889
2.84089e-07
0.000138846
2.49681e-07
0.000138808
2.16152e-07
0.000138776
1.83014e-07
0.00013875
1.49954e-07
0.000138729
1.16812e-07
0.000138713
8.3543e-08
0.000138703
5.01775e-08
0.000138699
1.68006e-08
0.000138699
-1.64711e-08
0.000138705
-4.95034e-08
0.000138716
-8.2146e-08
0.000138732
-1.14237e-07
0.000138752
-1.45599e-07
0.000138777
-1.76041e-07
0.000138807
-2.05361e-07
0.00013884
-2.33329e-07
0.000138877
-2.59701e-07
0.000138917
-2.84208e-07
0.000138961
-3.0656e-07
0.000139006
-3.26441e-07
0.000139054
-3.4351e-07
0.000139103
-3.57399e-07
0.000139153
-3.67711e-07
0.000139203
-3.74024e-07
0.000139252
-3.75883e-07
0.0001393
-3.72801e-07
0.000139345
-3.64254e-07
0.000139387
-3.4968e-07
0.000139425
-3.28468e-07
0.000139457
-2.99957e-07
0.000139482
-2.63425e-07
0.0001395
-2.18077e-07
0.000139508
-1.63034e-07
0.000139505
-9.73188e-08
0.000139489
-1.98329e-08
0.000139459
7.0649e-08
0.000139413
1.75515e-07
0.000139349
2.96355e-07
0.000139265
4.34992e-07
0.000139158
5.9352e-07
0.000139027
7.74361e-07
0.000138869
9.80319e-07
0.000138682
1.21465e-06
0.000138464
1.48113e-06
0.000138213
1.78416e-06
0.000137928
2.12882e-06
0.000137608
2.52099e-06
0.000137254
2.96738e-06
0.000136869
3.47559e-06
0.000136457
4.05406e-06
0.000136028
4.71188e-06
0.000135597
5.45841e-06
0.000135186
6.30249e-06
0.000134826
7.2511e-06
0.000134561
8.30721e-06
0.000134446
9.46632e-06
0.000134547
1.07116e-05
0.000134934
1.20074e-05
0.000135662
1.32927e-05
0.000136741
1.44765e-05
1.54449e-05
0.000138092
0.000149531
-1.45125e-07
0.00014957
-2.43207e-07
0.000149615
-2.73664e-07
0.000149656
-2.32598e-07
0.000149684
-1.25042e-07
0.000149692
3.19258e-08
0.000149673
2.11689e-07
0.000149629
3.84976e-07
0.000149562
5.27676e-07
0.000149478
6.2596e-07
0.000149384
6.77172e-07
0.000149284
6.87305e-07
0.000149185
6.6694e-07
0.000149091
6.27442e-07
0.000149002
5.78402e-07
0.00014892
5.26562e-07
0.000148845
4.75825e-07
0.000148778
4.27873e-07
0.000148717
3.82967e-07
0.000148663
3.40618e-07
0.000148616
3.00094e-07
0.000148574
2.60688e-07
0.000148539
2.21854e-07
0.000148509
1.83236e-07
0.000148485
1.44641e-07
0.000148466
1.06011e-07
0.000148453
6.7376e-08
0.000148445
2.88291e-08
0.000148443
-9.50221e-09
0.000148446
-4.74586e-08
0.000148453
-8.48704e-08
0.000148466
-1.21548e-07
0.000148483
-1.57285e-07
0.000148504
-1.9186e-07
0.00014853
-2.25034e-07
0.000148559
-2.56543e-07
0.000148592
-2.86104e-07
0.000148627
-3.13406e-07
0.000148665
-3.38112e-07
0.000148705
-3.59861e-07
0.000148747
-3.78261e-07
0.000148789
-3.9289e-07
0.000148832
-4.03299e-07
0.000148874
-4.09005e-07
0.000148915
-4.09493e-07
0.000148954
-4.04216e-07
0.00014899
-3.92583e-07
0.000149022
-3.73965e-07
0.000149049
-3.47686e-07
0.00014907
-3.13012e-07
0.000149083
-2.6915e-07
0.000149089
-2.15234e-07
0.000149084
-1.50314e-07
0.000149068
-7.33416e-08
0.00014904
1.68407e-08
0.000148997
1.21513e-07
0.000148939
2.42114e-07
0.000148863
3.80266e-07
0.000148768
5.37793e-07
0.000148653
7.1676e-07
0.000148517
9.19503e-07
0.000148357
1.14867e-06
0.000148172
1.40725e-06
0.000147963
1.69862e-06
0.000147729
2.02658e-06
0.00014747
2.39534e-06
0.00014719
2.80954e-06
0.000146891
3.27422e-06
0.00014658
3.79468e-06
0.000146266
4.3763e-06
0.000145962
5.02422e-06
0.000145686
5.74277e-06
0.000145461
6.53477e-06
0.00014532
7.40028e-06
0.0001453
8.33509e-06
0.000145445
9.32864e-06
0.000145803
1.03614e-05
0.000146416
1.14025e-05
0.000147308
1.24074e-05
0.000148473
1.33193e-05
1.40749e-05
0.00014985
0.000160005
-1.68435e-07
0.000160046
-2.84176e-07
0.000160095
-3.22362e-07
0.000160142
-2.78817e-07
0.000160176
-1.58781e-07
0.00016019
1.89165e-08
0.000160177
2.24471e-07
0.000160139
4.24689e-07
0.000160075
5.91794e-07
0.000159993
7.09338e-07
0.000159898
7.73448e-07
0.000159796
7.902e-07
0.000159694
7.7114e-07
0.000159594
7.29001e-07
0.000159499
6.74762e-07
0.000159412
6.16314e-07
0.000159331
5.58384e-07
0.000159259
5.03173e-07
0.000159193
4.51205e-07
0.000159134
4.02102e-07
0.000159082
3.55137e-07
0.000159037
3.09571e-07
0.000158997
2.64809e-07
0.000158964
2.20453e-07
0.000158936
1.76283e-07
0.000158914
1.32222e-07
0.000158898
8.82971e-08
0.000158887
4.46042e-08
0.000158881
1.29003e-09
0.00015888
-4.1475e-08
0.000158884
-8.34914e-08
0.000158892
-1.24555e-07
0.000158905
-1.64419e-07
0.000158922
-2.02835e-07
0.000158943
-2.39531e-07
0.000158967
-2.74206e-07
0.000158994
-3.06537e-07
0.000159023
-3.36172e-07
0.000159055
-3.62735e-07
0.000159088
-3.85816e-07
0.000159122
-4.04977e-07
0.000159156
-4.19749e-07
0.00015919
-4.29632e-07
0.000159223
-4.34092e-07
0.000159254
-4.32562e-07
0.000159282
-4.24439e-07
0.000159307
-4.09083e-07
0.000159327
-3.8581e-07
0.000159341
-3.53889e-07
0.000159349
-3.1254e-07
0.000159349
-2.6092e-07
0.000159341
-1.98121e-07
0.000159322
-1.23154e-07
0.000159292
-3.49458e-08
0.00015925
6.76683e-08
0.000159195
1.85967e-07
0.000159124
3.21367e-07
0.000159038
4.7543e-07
0.000158935
6.49878e-07
0.000158814
8.46619e-07
0.000158674
1.06775e-06
0.000158516
1.31559e-06
0.00015834
1.59267e-06
0.000158145
1.90173e-06
0.000157935
2.24572e-06
0.000157711
2.62775e-06
0.000157479
3.05102e-06
0.000157243
3.5187e-06
0.000157012
4.0338e-06
0.000156799
4.59885e-06
0.000156616
5.2156e-06
0.000156483
5.88453e-06
0.000156422
6.60424e-06
0.00015646
7.37067e-06
0.000156627
8.17617e-06
0.000156955
9.00852e-06
0.000157475
9.84989e-06
0.000158209
1.06763e-05
0.000159167
1.14575e-05
0.000160336
1.21592e-05
1.27465e-05
0.000161672
0.000171212
-1.93092e-07
0.000171256
-3.27938e-07
0.000171309
-3.7527e-07
0.000171362
-3.30619e-07
0.000171403
-1.99305e-07
0.000171424
-1.63015e-09
0.000171419
2.29665e-07
0.000171387
4.57609e-07
0.000171329
6.50692e-07
0.00017125
7.89603e-07
0.000171156
8.68926e-07
0.000171053
8.94484e-07
0.000170947
8.78556e-07
0.000170843
8.35123e-07
0.000170743
7.76534e-07
0.00017065
7.1189e-07
0.000170564
6.46849e-07
0.000170485
5.84238e-07
0.000170415
5.24949e-07
0.000170351
4.68781e-07
0.000170294
4.1507e-07
0.000170244
3.63073e-07
0.000170201
3.12171e-07
0.000170163
2.61925e-07
0.000170132
2.12089e-07
0.000170106
1.62566e-07
0.000170085
1.1338e-07
0.00017007
6.46267e-08
0.00017006
1.64592e-08
0.000170055
-3.09322e-08
0.000170055
-7.73177e-08
0.000170059
-1.22489e-07
0.000170066
-1.66153e-07
0.000170078
-2.08035e-07
0.000170093
-2.47833e-07
0.000170111
-2.85208e-07
0.000170131
-3.198e-07
0.000170153
-3.51224e-07
0.000170177
-3.79056e-07
0.000170202
-4.02851e-07
0.000170226
-4.22128e-07
0.000170251
-4.36377e-07
0.000170275
-4.45053e-07
0.000170296
-4.47582e-07
0.000170315
-4.43356e-07
0.000170331
-4.3173e-07
0.000170343
-4.12027e-07
0.000170349
-3.83526e-07
0.00017035
-3.45467e-07
0.000170343
-2.97042e-07
0.000170329
-2.37391e-07
0.000170305
-1.65596e-07
0.000170272
-8.06735e-08
0.000170228
1.84248e-08
0.000170172
1.32819e-07
0.000170104
2.63725e-07
0.000170022
4.12456e-07
0.000169927
5.80424e-07
0.000169817
7.6915e-07
0.000169693
9.80265e-07
0.000169554
1.21551e-06
0.000169403
1.47672e-06
0.000169239
1.76583e-06
0.000169065
2.08481e-06
0.000168885
2.43564e-06
0.000168702
2.82023e-06
0.000168522
3.24035e-06
0.000168352
3.69744e-06
0.000168203
4.19245e-06
0.000168085
4.72566e-06
0.000168014
5.29631e-06
0.000168005
5.90234e-06
0.000168079
6.53992e-06
0.000168255
7.20313e-06
0.000168557
7.88347e-06
0.000169005
8.56953e-06
0.000169616
9.24685e-06
0.000170403
9.89803e-06
0.000171366
1.05034e-05
0.000172491
1.10426e-05
1.14967e-05
0.00017375
0.000183205
-2.19115e-07
0.000183251
-3.7455e-07
0.000183309
-4.32539e-07
0.000183367
-3.88323e-07
0.000183415
-2.47171e-07
0.000183445
-3.05576e-08
0.000183449
2.2616e-07
0.000183425
4.82411e-07
0.000183374
7.02931e-07
0.0001833
8.65328e-07
0.000183208
9.62294e-07
0.000183105
9.99052e-07
0.000182997
9.88328e-07
0.000182888
9.45195e-07
0.000182784
8.83328e-07
0.000182685
8.13092e-07
0.000182593
7.41172e-07
0.000182509
6.71134e-07
0.000182433
6.04342e-07
0.000182364
5.4086e-07
0.000182302
4.80149e-07
0.000182248
4.21498e-07
0.000182199
3.6428e-07
0.000182158
3.08036e-07
0.000182122
2.5249e-07
0.000182092
1.9753e-07
0.000182067
1.43163e-07
0.000182047
8.94917e-08
0.000182033
3.66731e-08
0.000182022
-1.5085e-08
0.000182017
-6.5538e-08
0.000182015
-1.14451e-07
0.000182017
-1.61505e-07
0.000182022
-2.0639e-07
0.00018203
-2.4879e-07
0.00018204
-2.88316e-07
0.000182053
-3.2458e-07
0.000182066
-3.5716e-07
0.000182081
-3.85605e-07
0.000182095
-4.0943e-07
0.00018211
-4.28121e-07
0.000182123
-4.41134e-07
0.000182134
-4.47891e-07
0.000182143
-4.47792e-07
0.000182149
-4.40196e-07
0.000182151
-4.2444e-07
0.000182148
-3.99823e-07
0.000182139
-3.65613e-07
0.000182125
-3.21043e-07
0.000182102
-2.65308e-07
0.000182072
-1.97564e-07
0.000182033
-1.1692e-07
0.000181985
-2.24458e-08
0.000181926
8.68293e-08
0.000181857
2.11932e-07
0.000181777
3.53948e-07
0.000181685
5.14012e-07
0.000181583
6.93312e-07
0.000181469
8.93077e-07
0.000181345
1.11458e-06
0.000181211
1.35909e-06
0.00018107
1.62792e-06
0.000180924
1.92229e-06
0.000180775
2.24339e-06
0.000180629
2.59221e-06
0.000180489
2.96956e-06
0.000180364
3.37591e-06
0.00018026
3.81126e-06
0.000180187
4.27504e-06
0.000180157
4.7659e-06
0.000180182
5.28154e-06
0.000180275
5.8185e-06
0.000180453
6.372e-06
0.00018073
6.93574e-06
0.000181121
7.50185e-06
0.000181639
8.06082e-06
0.000182294
8.60172e-06
0.000183089
9.11252e-06
0.000184021
9.58071e-06
0.000185078
9.99433e-06
1.03432e-05
0.000186241
0.000196037
-2.46504e-07
0.000196086
-4.24002e-07
0.000196148
-4.94195e-07
0.000196212
-4.52036e-07
0.000196268
-3.02628e-07
0.000196307
-6.83197e-08
0.00019632
2.13255e-07
0.000196306
4.98156e-07
0.000196262
7.47394e-07
0.000196194
9.353e-07
0.000196105
1.05234e-06
0.000196003
1.10278e-06
0.000195894
1.0995e-06
0.000195783
1.05846e-06
0.000195674
9.94593e-07
0.00019557
9.19568e-07
0.000195472
8.41176e-07
0.000195383
7.63831e-07
0.000195301
6.89478e-07
0.000195226
6.18536e-07
0.00019516
5.50647e-07
0.0001951
4.85191e-07
0.000195047
4.21553e-07
0.000195
3.59264e-07
0.000194959
2.98032e-07
0.000194924
2.37722e-07
0.000194895
1.78333e-07
0.00019487
1.19961e-07
0.00019485
6.2772e-08
0.000194834
6.97791e-09
0.000194822
-4.71369e-08
0.000194813
-9.93579e-08
0.000194808
-1.49311e-07
0.000194806
-1.96641e-07
0.000194805
-2.41069e-07
0.000194807
-2.82112e-07
0.00019481
-3.19386e-07
0.000194813
-3.52432e-07
0.000194817
-3.80774e-07
0.00019482
-4.03895e-07
0.000194822
-4.21266e-07
0.000194822
-4.32312e-07
0.00019482
-4.36443e-07
0.000194814
-4.33037e-07
0.000194805
-4.21448e-07
0.000194792
-4.01007e-07
0.000194773
-3.71015e-07
0.000194748
-3.30754e-07
0.000194716
-2.79477e-07
0.000194678
-2.16414e-07
0.000194631
-1.40771e-07
0.000194576
-5.17305e-08
0.000194513
5.15385e-08
0.00019444
1.6989e-07
0.000194359
3.04203e-07
0.000194268
4.55371e-07
0.000194168
6.24296e-07
0.000194061
8.11875e-07
0.000193945
1.01899e-06
0.000193824
1.24649e-06
0.000193699
1.49517e-06
0.000193572
1.76574e-06
0.000193446
2.05876e-06
0.000193326
2.37464e-06
0.000193215
2.71353e-06
0.00019312
3.07528e-06
0.000193048
3.45935e-06
0.000193005
3.86472e-06
0.000193001
4.28977e-06
0.000193045
4.73221e-06
0.000193148
5.18898e-06
0.000193321
5.65615e-06
0.000193574
6.1289e-06
0.000193919
6.60146e-06
0.000194364
7.06721e-06
0.000194916
7.51878e-06
0.00019558
7.94829e-06
0.000196354
8.34765e-06
0.000197236
8.70906e-06
0.000198215
9.02558e-06
9.29182e-06
0.000199276
0.000209767
-2.75225e-07
0.00020982
-4.76214e-07
0.000209886
-5.60121e-07
0.000209956
-5.21629e-07
0.00021002
-3.65584e-07
0.000210067
-1.14935e-07
0.00021009
1.90748e-07
0.000210085
5.04412e-07
0.00021005
7.83402e-07
0.000209988
9.98637e-07
0.000209904
1.13807e-06
0.000209804
1.20465e-06
0.000209694
1.21108e-06
0.000209581
1.17405e-06
0.000209468
1.10966e-06
0.00020936
1.03084e-06
0.000209257
9.46573e-07
0.000209162
8.62224e-07
0.000209074
7.80414e-07
0.000208995
7.02e-07
0.000208922
6.26888e-07
0.000208857
5.54579e-07
0.000208799
4.84514e-07
0.000208747
4.16228e-07
0.0002087
3.49418e-07
0.00020866
2.83935e-07
0.000208624
2.19768e-07
0.000208593
1.57005e-07
0.000208566
9.5812e-08
0.000208543
3.64165e-08
0.000208524
-2.0908e-08
0.000208508
-7.58778e-08
0.000208494
-1.28142e-07
0.000208482
-1.77335e-07
0.000208472
-2.2309e-07
0.000208463
-2.64965e-07
0.000208455
-3.02527e-07
0.000208447
-3.35298e-07
0.000208438
-3.62785e-07
0.000208427
-3.84448e-07
0.000208415
-3.99763e-07
0.000208401
-4.08129e-07
0.000208383
-4.08959e-07
0.000208362
-4.01633e-07
0.000208336
-3.85519e-07
0.000208305
-3.59958e-07
0.000208269
-3.24283e-07
0.000208227
-2.77813e-07
0.000208178
-2.19854e-07
0.000208122
-1.49702e-07
0.000208059
-6.66514e-08
0.000207988
2.99995e-08
0.00020791
1.40949e-07
0.000207824
2.66895e-07
0.000207731
4.08522e-07
0.000207632
5.6649e-07
0.000207526
7.41421e-07
0.000207415
9.33891e-07
0.000207301
1.14441e-06
0.000207186
1.37339e-06
0.000207072
1.62114e-06
0.000206961
1.88782e-06
0.000206858
2.17341e-06
0.000206766
2.47763e-06
0.000206691
2.79998e-06
0.000206639
3.13959e-06
0.000206614
3.49521e-06
0.000206625
3.86518e-06
0.000206679
4.24734e-06
0.000206783
4.639e-06
0.000206947
5.0369e-06
0.000207177
5.43725e-06
0.000207481
5.83569e-06
0.000207866
6.22739e-06
0.000208337
6.60715e-06
0.000208897
6.96949e-06
0.000209548
7.30893e-06
0.000210286
7.62017e-06
0.000211107
7.89841e-06
0.000212004
8.13965e-06
8.34116e-06
0.000212965
0.00022446
-3.05216e-07
0.000224515
-5.31031e-07
0.000224585
-6.30055e-07
0.00022466
-5.96732e-07
0.000224731
-4.35598e-07
0.000224787
-1.69965e-07
0.00022482
1.58965e-07
0.000224824
5.0129e-07
0.000224798
8.10793e-07
0.000224743
1.05489e-06
0.000224664
1.21877e-06
0.000224567
1.30379e-06
0.000224458
1.32219e-06
0.000224343
1.29114e-06
0.000224227
1.22779e-06
0.000224115
1.14635e-06
0.000224007
1.05702e-06
0.000223907
9.66172e-07
0.000223814
8.772e-07
0.000223728
7.91487e-07
0.00022365
7.09258e-07
0.000223579
6.30197e-07
0.000223514
5.53825e-07
0.000223456
4.79709e-07
0.000223403
4.07544e-07
0.000223356
3.37175e-07
0.000223313
2.68575e-07
0.000223275
2.01827e-07
0.00022324
1.37101e-07
0.000223209
7.46236e-08
0.00022318
1.46728e-08
0.000223155
-4.24348e-08
0.000223131
-9.63501e-08
0.000223108
-1.46695e-07
0.000223087
-1.9306e-07
0.000223066
-2.35009e-07
0.000223044
-2.72097e-07
0.000223022
-3.03821e-07
0.000222999
-3.29689e-07
0.000222973
-3.49163e-07
0.000222945
-3.61699e-07
0.000222914
-3.66728e-07
0.000222879
-3.63665e-07
0.00022284
-3.51906e-07
0.000222796
-3.30869e-07
0.000222747
-2.99917e-07
0.000222692
-2.58442e-07
0.000222632
-2.05833e-07
0.000222565
-1.41473e-07
0.000222492
-6.47573e-08
0.000222412
2.48918e-08
0.000222326
1.28036e-07
0.000222233
2.45216e-07
0.000222135
3.76934e-07
0.000222032
5.23648e-07
0.000221925
6.8576e-07
0.000221815
8.636e-07
0.000221704
1.05741e-06
0.000221593
1.26734e-06
0.000221485
1.49339e-06
0.000221383
1.73544e-06
0.00022129
1.99316e-06
0.00022121
2.26606e-06
0.000221146
2.55338e-06
0.000221105
2.8541e-06
0.00022109
3.1669e-06
0.000221107
3.49016e-06
0.000221162
3.82189e-06
0.000221262
4.15975e-06
0.000221412
4.50104e-06
0.000221618
4.8427e-06
0.000221886
5.18137e-06
0.00022222
5.5134e-06
0.000222624
5.83498e-06
0.000223101
6.14217e-06
0.000223651
6.43109e-06
0.000224274
6.69801e-06
0.000224966
6.93951e-06
0.000225723
7.15268e-06
0.000226538
7.3353e-06
7.48606e-06
0.000227405
0.000240181
-3.36376e-07
0.000240238
-5.88226e-07
0.000240312
-7.03606e-07
0.000240393
-6.76779e-07
0.00024047
-5.11931e-07
0.000240533
-2.32582e-07
0.000240574
1.18708e-07
0.000240587
4.8942e-07
0.00024057
8.29908e-07
0.000240522
1.10406e-06
0.000240448
1.29414e-06
0.000240355
1.39964e-06
0.000240247
1.43211e-06
0.000240132
1.40898e-06
0.000240014
1.34833e-06
0.000239897
1.26559e-06
0.000239786
1.17218e-06
0.00023968
1.07555e-06
0.000239581
9.79926e-07
0.000239489
8.87287e-07
0.000239405
7.98241e-07
0.000239327
7.12699e-07
0.000239256
6.30301e-07
0.00023919
5.50665e-07
0.00023913
4.73506e-07
0.000239075
3.98659e-07
0.000239024
3.26093e-07
0.000238976
2.55886e-07
0.000238932
1.88198e-07
0.000238891
1.23261e-07
0.000238852
6.13593e-08
0.000238815
2.81358e-09
0.000238779
-5.20113e-08
0.000238744
-1.02736e-07
0.000238709
-1.48938e-07
0.000238673
-1.9017e-07
0.000238637
-2.25999e-07
0.000238599
-2.55902e-07
0.000238559
-2.79408e-07
0.000238516
-2.95988e-07
0.00023847
-3.05106e-07
0.00023842
-3.06222e-07
0.000238367
-2.98787e-07
0.000238308
-2.82245e-07
0.000238245
-2.56045e-07
0.000238177
-2.19633e-07
0.000238102
-1.7246e-07
0.000238023
-1.14044e-07
0.000237937
-4.38411e-08
0.000237846
3.86111e-08
0.00023775
1.33749e-07
0.000237649
2.41974e-07
0.000237543
3.63637e-07
0.000237434
4.99028e-07
0.000237322
6.48371e-07
0.000237209
8.11802e-07
0.000237096
9.89366e-07
0.000236985
1.181e-06
0.000236879
1.38651e-06
0.00023678
1.60556e-06
0.000236691
1.83767e-06
0.000236615
2.08215e-06
0.000236556
2.33816e-06
0.000236518
2.60459e-06
0.000236505
2.88016e-06
0.000236522
3.16331e-06
0.000236573
3.45226e-06
0.000236662
3.74497e-06
0.000236796
4.03919e-06
0.000236977
4.33243e-06
0.000237211
4.62202e-06
0.0002375
4.90518e-06
0.000237847
5.17901e-06
0.000238254
5.4406e-06