/*--------------------------------*- C++ -*----------------------------------*\
| =========                 |                                                 |
| \\      /  F ield         | OpenFOAM: The Open Source CFD Toolbox           |
|  \\    /   O peration     | Version:  5.x                                   |
|   \\  /    A nd           | Web:      www.OpenFOAM.org                      |
|    \\/     M anipulation  |                                                 |
\*---------------------------------------------------------------------------*/
FoamFile
{
    version     2.0;
    format      ascii;
    class       volVectorField;
    location    "1";
    object      U;
}
// * * * * * * * * * * * * * * * * * * * * * * * * * * * * * * * * * * * * * //

dimensions      [0 1 -1 0 0 0 0];

internalField   nonuniform List<vector> 
12013
(
(0.100006 -1.48521e-06 0)
(0.100027 -2.41793e-06 0)
(0.100056 -2.69234e-06 0)
(0.100083 -2.18158e-06 0)
(0.1001 -9.17333e-07 0)
(0.100102 9.26851e-07 0)
(0.100084 3.0537e-06 0)
(0.100046 5.11927e-06 0)
(0.0999915 6.83198e-06 0)
(0.0999247 8.0183e-06 0)
(0.0998515 8.63944e-06 0)
(0.0997769 8.76465e-06 0)
(0.0997048 8.52147e-06 0)
(0.0996375 8.04947e-06 0)
(0.0995763 7.46633e-06 0)
(0.0995214 6.85301e-06 0)
(0.0994726 6.25434e-06 0)
(0.0994296 5.68569e-06 0)
(0.0993918 5.14459e-06 0)
(0.0993589 4.61933e-06 0)
(0.0993308 4.09566e-06 0)
(0.0993073 3.56004e-06 0)
(0.0992883 3.00273e-06 0)
(0.099274 2.41709e-06 0)
(0.0992643 1.79846e-06 0)
(0.0992593 1.14564e-06 0)
(0.0992591 4.57879e-07 0)
(0.0992638 -2.64122e-07 0)
(0.0992733 -1.01878e-06 0)
(0.0992877 -1.80401e-06 0)
(0.0993069 -2.61704e-06 0)
(0.0993311 -3.45573e-06 0)
(0.09936 -4.31572e-06 0)
(0.0993937 -5.19318e-06 0)
(0.099432 -6.08317e-06 0)
(0.0994748 -6.97984e-06 0)
(0.0995221 -7.87581e-06 0)
(0.0995734 -8.76391e-06 0)
(0.0996288 -9.63383e-06 0)
(0.0996878 -1.04754e-05 0)
(0.0997501 -1.12757e-05 0)
(0.0998155 -1.2021e-05 0)
(0.0998835 -1.26943e-05 0)
(0.0999535 -1.32786e-05 0)
(0.100025 -1.37523e-05 0)
(0.100098 -1.40924e-05 0)
(0.100171 -1.42729e-05 0)
(0.100243 -1.42636e-05 0)
(0.100315 -1.40313e-05 0)
(0.100384 -1.35379e-05 0)
(0.10045 -1.2739e-05 0)
(0.100511 -1.15857e-05 0)
(0.100567 -1.002e-05 0)
(0.100616 -7.97543e-06 0)
(0.100657 -5.37455e-06 0)
(0.100687 -2.12618e-06 0)
(0.100704 1.87786e-06 0)
(0.100707 6.76616e-06 0)
(0.100693 1.2693e-05 0)
(0.100659 1.98448e-05 0)
(0.100601 2.84519e-05 0)
(0.100515 3.87961e-05 0)
(0.100397 5.12313e-05 0)
(0.100242 6.6204e-05 0)
(0.100042 8.42857e-05 0)
(0.0997895 0.000106217 0)
(0.099475 0.000132973 0)
(0.099086 0.000165858 0)
(0.0986072 0.000206649 0)
(0.0980188 0.000257811 0)
(0.0972949 0.000322844 0)
(0.0964013 0.000406819 0)
(0.0952912 0.000517269 0)
(0.0938999 0.000665665 0)
(0.092135 0.00086992 0)
(0.0898627 0.00115872 0)
(0.0868839 0.00157917 0)
(0.0828812 0.00221276 0)
(0.0773563 0.00322509 0)
(0.0697089 0.00508079 0)
(0.0610852 0.00987647 0)
(0.100006 -4.55335e-06 0)
(0.100027 -7.43335e-06 0)
(0.100056 -8.28546e-06 0)
(0.100083 -6.72539e-06 0)
(0.100101 -2.85175e-06 0)
(0.100103 2.80482e-06 0)
(0.100085 9.33199e-06 0)
(0.100048 1.56755e-05 0)
(0.0999936 2.09386e-05 0)
(0.0999271 2.45878e-05 0)
(0.0998541 2.65033e-05 0)
(0.0997796 2.68956e-05 0)
(0.0997075 2.61569e-05 0)
(0.0996402 2.47143e-05 0)
(0.0995789 2.2929e-05 0)
(0.0995238 2.10504e-05 0)
(0.0994749 1.92158e-05 0)
(0.0994316 1.74732e-05 0)
(0.0993936 1.5815e-05 0)
(0.0993605 1.42052e-05 0)
(0.0993321 1.26002e-05 0)
(0.0993083 1.09599e-05 0)
(0.099289 9.25344e-06 0)
(0.0992743 7.45999e-06 0)
(0.0992642 5.56707e-06 0)
(0.0992588 3.56876e-06 0)
(0.0992582 1.46393e-06 0)
(0.0992623 -7.44353e-07 0)
(0.0992713 -3.05229e-06 0)
(0.099285 -5.45294e-06 0)
(0.0993036 -7.93955e-06 0)
(0.099327 -1.05027e-05 0)
(0.0993552 -1.3131e-05 0)
(0.099388 -1.58116e-05 0)
(0.0994254 -1.85293e-05 0)
(0.0994673 -2.12668e-05 0)
(0.0995134 -2.40022e-05 0)
(0.0995637 -2.67111e-05 0)
(0.0996178 -2.9364e-05 0)
(0.0996755 -3.1928e-05 0)
(0.0997365 -3.43652e-05 0)
(0.0998004 -3.6632e-05 0)
(0.0998668 -3.86783e-05 0)
(0.0999353 -4.04492e-05 0)
(0.100005 -4.1881e-05 0)
(0.100076 -4.2902e-05 0)
(0.100147 -4.34319e-05 0)
(0.100218 -4.33802e-05 0)
(0.100287 -4.26437e-05 0)
(0.100354 -4.11061e-05 0)
(0.100418 -3.86331e-05 0)
(0.100478 -3.50731e-05 0)
(0.100532 -3.02504e-05 0)
(0.100578 -2.39619e-05 0)
(0.100617 -1.59712e-05 0)
(0.100644 -5.99962e-06 0)
(0.10066 6.28106e-06 0)
(0.100661 2.12619e-05 0)
(0.100645 3.94105e-05 0)
(0.100609 6.12941e-05 0)
(0.10055 8.76056e-05 0)
(0.100464 0.000119199 0)
(0.100346 0.00015714 0)
(0.100191 0.000202769 0)
(0.0999935 0.000257797 0)
(0.099745 0.000324434 0)
(0.0994366 0.000405572 0)
(0.099057 0.000505063 0)
(0.0985922 0.000628112 0)
(0.0980246 0.000781884 0)
(0.0973316 0.000976432 0)
(0.0964839 0.00122613 0)
(0.0954435 0.00155197 0)
(0.0941595 0.00198515 0)
(0.0925645 0.00257292 0)
(0.0905688 0.00338763 0)
(0.0880554 0.00454017 0)
(0.08487 0.00619862 0)
(0.080839 0.00861337 0)
(0.0760141 0.0120841 0)
(0.0718019 0.0164958 0)
(0.100005 -7.80253e-06 0)
(0.100026 -1.28185e-05 0)
(0.100056 -1.43165e-05 0)
(0.100083 -1.16672e-05 0)
(0.100102 -5.03574e-06 0)
(0.100104 4.6715e-06 0)
(0.100088 1.58901e-05 0)
(0.100051 2.68102e-05 0)
(0.099998 3.58878e-05 0)
(0.0999323 4.22007e-05 0)
(0.0998599 4.55364e-05 0)
(0.0997858 4.62518e-05 0)
(0.0997139 4.50177e-05 0)
(0.0996466 4.25666e-05 0)
(0.0995851 3.95189e-05 0)
(0.0995298 3.63048e-05 0)
(0.0994805 3.31613e-05 0)
(0.0994369 3.01737e-05 0)
(0.0993985 2.73306e-05 0)
(0.0993649 2.45708e-05 0)
(0.099336 2.18207e-05 0)
(0.0993117 1.90119e-05 0)
(0.0992919 1.60917e-05 0)
(0.0992765 1.30247e-05 0)
(0.0992658 9.78926e-06 0)
(0.0992596 6.37545e-06 0)
(0.0992581 2.78207e-06 0)
(0.0992614 -9.86752e-07 0)
(0.0992693 -4.92332e-06 0)
(0.0992819 -9.01673e-06 0)
(0.0992993 -1.32545e-05 0)
(0.0993214 -1.76199e-05 0)
(0.0993481 -2.20945e-05 0)
(0.0993793 -2.66553e-05 0)
(0.099415 -3.12763e-05 0)
(0.099455 -3.5927e-05 0)
(0.0994992 -4.05705e-05 0)
(0.0995473 -4.51636e-05 0)
(0.0995991 -4.9657e-05 0)
(0.0996544 -5.39936e-05 0)
(0.0997128 -5.81079e-05 0)
(0.0997739 -6.1925e-05 0)
(0.0998374 -6.53603e-05 0)
(0.0999028 -6.83176e-05 0)
(0.0999695 -7.06887e-05 0)
(0.100037 -7.23512e-05 0)
(0.100105 -7.3167e-05 0)
(0.100172 -7.29818e-05 0)
(0.100237 -7.16189e-05 0)
(0.1003 -6.88793e-05 0)
(0.10036 -6.45357e-05 0)
(0.100415 -5.83281e-05 0)
(0.100465 -4.99585e-05 0)
(0.100507 -3.90816e-05 0)
(0.100541 -2.52957e-05 0)
(0.100565 -8.12972e-06 0)
(0.100576 1.29712e-05 0)
(0.100573 3.86644e-05 0)
(0.100554 6.97361e-05 0)
(0.100514 0.000107137 0)
(0.100453 0.000152022 0)
(0.100365 0.000205813 0)
(0.100246 0.000270271 0)
(0.100092 0.000347601 0)
(0.0998977 0.000440599 0)
(0.0996551 0.000552844 0)
(0.0993568 0.000688982 0)
(0.0989929 0.000855122 0)
(0.0985518 0.0010594 0)
(0.0980191 0.00131284 0)
(0.0973777 0.00163055 0)
(0.0966061 0.00203356 0)
(0.0956788 0.00255151 0)
(0.0945652 0.00322654 0)
(0.0932306 0.00411873 0)
(0.0916394 0.00531289 0)
(0.0897643 0.00692464 0)
(0.0876035 0.00909924 0)
(0.0852267 0.0119877 0)
(0.0829153 0.0156196 0)
(0.0814312 0.019376 0)
(0.100005 -1.12295e-05 0)
(0.100026 -1.85917e-05 0)
(0.100055 -2.08199e-05 0)
(0.100084 -1.70712e-05 0)
(0.100103 -7.56203e-06 0)
(0.100107 6.41132e-06 0)
(0.100092 2.26022e-05 0)
(0.100057 3.8403e-05 0)
(0.100005 5.1581e-05 0)
(0.0999407 6.07933e-05 0)
(0.0998695 6.57175e-05 0)
(0.0997962 6.6855e-05 0)
(0.0997247 6.51632e-05 0)
(0.0996574 6.16948e-05 0)
(0.0995958 5.73454e-05 0)
(0.0995402 5.27382e-05 0)
(0.0994905 4.82202e-05 0)
(0.0994464 4.392e-05 0)
(0.0994074 3.98251e-05 0)
(0.0993732 3.58512e-05 0)
(0.0993437 3.18938e-05 0)
(0.0993187 2.78562e-05 0)
(0.0992981 2.36631e-05 0)
(0.099282 1.92639e-05 0)
(0.0992704 1.46273e-05 0)
(0.0992632 9.73995e-06 0)
(0.0992606 4.59965e-06 0)
(0.0992626 -7.88155e-07 0)
(0.0992691 -6.41095e-06 0)
(0.0992803 -1.22539e-05 0)
(0.099296 -1.82977e-05 0)
(0.0993162 -2.4519e-05 0)
(0.0993409 -3.08898e-05 0)
(0.09937 -3.73778e-05 0)
(0.0994033 -4.39446e-05 0)
(0.0994407 -5.05454e-05 0)
(0.0994821 -5.71268e-05 0)
(0.0995272 -6.36265e-05 0)
(0.0995758 -6.99734e-05 0)
(0.0996276 -7.60845e-05 0)
(0.0996824 -8.18649e-05 0)
(0.0997396 -8.72072e-05 0)
(0.099799 -9.19891e-05 0)
(0.09986 -9.60723e-05 0)
(0.0999221 -9.93008e-05 0)
(0.0999848 -0.000101499 0)
(0.100047 -0.00010247 0)
(0.100109 -0.00010199 0)
(0.100169 -9.98074e-05 0)
(0.100226 -9.56377e-05 0)
(0.10028 -8.91564e-05 0)
(0.10033 -7.99933e-05 0)
(0.100373 -6.7724e-05 0)
(0.10041 -5.18583e-05 0)
(0.100438 -3.18273e-05 0)
(0.100455 -6.96672e-06 0)
(0.100461 2.35043e-05 0)
(0.100453 6.05056e-05 0)
(0.100428 0.000105136 0)
(0.100384 0.000158714 0)
(0.100319 0.00022284 0)
(0.100229 0.000299464 0)
(0.10011 0.000390986 0)
(0.0999587 0.000500391 0)
(0.0997692 0.00063142 0)
(0.0995362 0.00078881 0)
(0.0992532 0.000978621 0)
(0.0989127 0.00120869 0)
(0.098506 0.00148925 0)
(0.0980233 0.0018338 0)
(0.0974535 0.0022603 0)
(0.0967847 0.00279283 0)
(0.0960049 0.00346373 0)
(0.0951039 0.00431627 0)
(0.0940768 0.00540746 0)
(0.0929308 0.00680948 0)
(0.091697 0.00860604 0)
(0.0904488 0.0108746 0)
(0.0893271 0.0136381 0)
(0.08857 0.0167424 0)
(0.088479 0.019581 0)
(0.100005 -1.48545e-05 0)
(0.100026 -2.47802e-05 0)
(0.100055 -2.78507e-05 0)
(0.100084 -2.30283e-05 0)
(0.100104 -1.05624e-05 0)
(0.10011 7.85633e-06 0)
(0.100097 2.92778e-05 0)
(0.100064 5.02618e-05 0)
(0.100015 6.7848e-05 0)
(0.0999529 8.02354e-05 0)
(0.0998833 8.6968e-05 0)
(0.0998113 8.86796e-05 0)
(0.0997404 8.66163e-05 0)
(0.0996735 8.21604e-05 0)
(0.0996118 7.64958e-05 0)
(0.0995558 7.04543e-05 0)
(0.0995056 6.45046e-05 0)
(0.0994609 5.88265e-05 0)
(0.0994213 5.34124e-05 0)
(0.0993865 4.81585e-05 0)
(0.0993562 4.29309e-05 0)
(0.0993304 3.76047e-05 0)
(0.099309 3.20828e-05 0)
(0.0992919 2.62976e-05 0)
(0.0992792 2.02098e-05 0)
(0.0992709 1.3801e-05 0)
(0.099267 7.06785e-06 0)
(0.0992675 1.8907e-08 0)
(0.0992725 -7.33024e-06 0)
(0.0992818 -1.49587e-05 0)
(0.0992955 -2.28407e-05 0)
(0.0993135 -3.0945e-05 0)
(0.0993358 -3.92339e-05 0)
(0.0993622 -4.7664e-05 0)
(0.0993926 -5.61838e-05 0)
(0.0994269 -6.47331e-05 0)
(0.0994648 -7.3241e-05 0)
(0.0995062 -8.16246e-05 0)
(0.0995509 -8.9789e-05 0)
(0.0995984 -9.7624e-05 0)
(0.0996486 -0.000105005 0)
(0.099701 -0.000111788 0)
(0.0997552 -0.000117812 0)
(0.0998108 -0.000122896 0)
(0.0998672 -0.000126833 0)
(0.0999238 -0.000129392 0)
(0.0999801 -0.000130314 0)
(0.100035 -0.000129307 0)
(0.100088 -0.000126041 0)
(0.100139 -0.000120143 0)
(0.100186 -0.000111191 0)
(0.100228 -9.87041e-05 0)
(0.100264 -8.21307e-05 0)
(0.100293 -6.08374e-05 0)
(0.100313 -3.40911e-05 0)
(0.100324 -1.03854e-06 0)
(0.100323 3.9315e-05 0)
(0.100308 8.81386e-05 0)
(0.100278 0.000146821 0)
(0.10023 0.000217019 0)
(0.100161 0.000300726 0)
(0.10007 0.000400349 0)
(0.0999517 0.000518829 0)
(0.0998041 0.000659771 0)
(0.0996228 0.00082764 0)
(0.0994038 0.001028 0)
(0.0991422 0.00126783 0)
(0.0988332 0.00155598 0)
(0.0984713 0.00190365 0)
(0.0980516 0.00232521 0)
(0.0975694 0.00283902 0)
(0.0970217 0.00346853 0)
(0.0964083 0.00424347 0)
(0.095735 0.0052008 0)
(0.095017 0.00638466 0)
(0.0942854 0.00784372 0)
(0.0935949 0.00962246 0)
(0.0930322 0.0117402 0)
(0.0927206 0.0141492 0)
(0.0928041 0.0166612 0)
(0.0933723 0.0188519 0)
(0.100005 -1.86957e-05 0)
(0.100026 -3.14141e-05 0)
(0.100055 -3.54723e-05 0)
(0.100085 -2.96457e-05 0)
(0.100106 -1.41964e-05 0)
(0.100114 8.79784e-06 0)
(0.100104 3.56743e-05 0)
(0.100074 6.21372e-05 0)
(0.100028 8.44595e-05 0)
(0.0999689 0.000100343 0)
(0.0999018 0.000109164 0)
(0.0998314 0.000111666 0)
(0.0997616 0.000109376 0)
(0.0996952 0.00010401 0)
(0.0996335 9.70518e-05 0)
(0.0995772 8.95557e-05 0)
(0.0995265 8.21265e-05 0)
(0.0994812 7.5008e-05 0)
(0.0994409 6.82066e-05 0)
(0.0994053 6.16043e-05 0)
(0.0993743 5.50418e-05 0)
(0.0993477 4.83674e-05 0)
(0.0993253 4.14625e-05 0)
(0.0993073 3.42435e-05 0)
(0.0992934 2.66618e-05 0)
(0.0992839 1.86939e-05 0)
(0.0992785 1.03364e-05 0)
(0.0992775 1.59989e-06 0)
(0.0992806 -7.49625e-06 0)
(0.0992879 -1.69246e-05 0)
(0.0992994 -2.66521e-05 0)
(0.0993149 -3.66386e-05 0)
(0.0993344 -4.68362e-05 0)
(0.0993578 -5.71892e-05 0)
(0.0993849 -6.76316e-05 0)
(0.0994156 -7.80869e-05 0)
(0.0994496 -8.84648e-05 0)
(0.0994868 -9.86613e-05 0)
(0.0995269 -0.000108555 0)
(0.0995695 -0.000118009 0)
(0.0996145 -0.000126865 0)
(0.0996613 -0.000134943 0)
(0.0997095 -0.000142042 0)
(0.0997588 -0.000147933 0)
(0.0998086 -0.000152361 0)
(0.0998583 -0.000155037 0)
(0.0999073 -0.000155639 0)
(0.0999549 -0.000153804 0)
(0.1 -0.000149124 0)
(0.100043 -0.00014114 0)
(0.100081 -0.000129333 0)
(0.100115 -0.000113111 0)
(0.100143 -9.1801e-05 0)
(0.100164 -6.46332e-05 0)
(0.100176 -3.07188e-05 0)
(0.100179 1.0969e-05 0)
(0.10017 6.16183e-05 0)
(0.100149 0.000122621 0)
(0.100113 0.000195616 0)
(0.10006 0.000282543 0)
(0.0999893 0.000385709 0)
(0.0998974 0.000507875 0)
(0.0997824 0.000652363 0)
(0.0996416 0.000823195 0)
(0.0994723 0.00102526 0)
(0.0992719 0.00126452 0)
(0.0990377 0.00154831 0)
(0.0987673 0.00188563 0)
(0.0984588 0.00228754 0)
(0.0981113 0.00276766 0)
(0.097726 0.00334261 0)
(0.0973067 0.00403243 0)
(0.0968617 0.0048608 0)
(0.0964062 0.00585463 0)
(0.0959652 0.00704228 0)
(0.0955771 0.00844928 0)
(0.0952966 0.0100895 0)
(0.0951961 0.0119489 0)
(0.0953588 0.01396 0)
(0.0958563 0.0159689 0)
(0.0966959 0.017713 0)
(0.100005 -2.27678e-05 0)
(0.100026 -3.85254e-05 0)
(0.100055 -4.3753e-05 0)
(0.100085 -3.70448e-05 0)
(0.100109 -1.86493e-05 0)
(0.100119 8.98873e-06 0)
(0.100112 4.15009e-05 0)
(0.100087 7.37219e-05 0)
(0.100044 0.000101127 0)
(0.0999888 0.000120877 0)
(0.0999247 0.000132132 0)
(0.0998566 0.000135715 0)
(0.0997883 0.000133412 0)
(0.0997225 0.000127269 0)
(0.099661 0.00011908 0)
(0.0996046 0.000110134 0)
(0.0995534 0.000101191 0)
(0.0995075 9.25751e-05 0)
(0.0994665 8.43176e-05 0)
(0.0994302 7.62961e-05 0)
(0.0993984 6.83311e-05 0)
(0.099371 6.02484e-05 0)
(0.0993477 5.19078e-05 0)
(0.0993286 4.32113e-05 0)
(0.0993137 3.41002e-05 0)
(0.0993028 2.45466e-05 0)
(0.099296 1.45465e-05 0)
(0.0992933 4.11226e-06 0)
(0.0992945 -6.73147e-06 0)
(0.0992997 -1.79514e-05 0)
(0.0993088 -2.95053e-05 0)
(0.0993216 -4.13439e-05 0)
(0.0993382 -5.3408e-05 0)
(0.0993583 -6.56282e-05 0)
(0.0993818 -7.79237e-05 0)
(0.0994085 -9.01991e-05 0)
(0.0994383 -0.000102344 0)
(0.0994708 -0.000114232 0)
(0.0995059 -0.000125715 0)
(0.0995432 -0.000136625 0)
(0.0995823 -0.000146771 0)
(0.099623 -0.000155936 0)
(0.0996647 -0.000163877 0)
(0.0997071 -0.000170319 0)
(0.0997496 -0.000174953 0)
(0.0997916 -0.000177436 0)
(0.0998327 -0.000177382 0)
(0.099872 -0.000174359 0)
(0.0999089 -0.000167882 0)
(0.0999426 -0.000157409 0)
(0.0999723 -0.000142325 0)
(0.0999971 -0.000121938 0)
(0.100016 -9.54622e-05 0)
(0.100028 -6.2001e-05 0)
(0.100032 -2.05283e-05 0)
(0.100027 3.01302e-05 0)
(0.100011 9.13263e-05 0)
(0.099983 0.000164632 0)
(0.0999419 0.000251879 0)
(0.0998861 0.000355211 0)
(0.0998138 0.000477147 0)
(0.0997236 0.000620657 0)
(0.0996138 0.000789262 0)
(0.0994828 0.00098714 0)
(0.0993292 0.00121927 0)
(0.0991518 0.00149157 0)
(0.0989499 0.0018111 0)
(0.0987234 0.00218627 0)
(0.0984733 0.002627 0)
(0.0982024 0.00314492 0)
(0.0979156 0.00375348 0)
(0.0976212 0.00446779 0)
(0.097332 0.00530423 0)
(0.097067 0.00627927 0)
(0.0968525 0.00740728 0)
(0.096724 0.00869647 0)
(0.0967257 0.0101423 0)
(0.0969082 0.0117178 0)
(0.0973199 0.0133608 0)
(0.0979904 0.0149631 0)
(0.0989018 0.0163711 0)
(0.100005 -2.70846e-05 0)
(0.100025 -4.61465e-05 0)
(0.100055 -5.27657e-05 0)
(0.100086 -4.5355e-05 0)
(0.100111 -2.41221e-05 0)
(0.100124 8.15551e-06 0)
(0.100121 4.64274e-05 0)
(0.100101 8.46612e-05 0)
(0.100063 0.000117508 0)
(0.100012 0.000141539 0)
(0.0999516 0.000155646 0)
(0.0998863 0.000160678 0)
(0.0998199 0.000158653 0)
(0.0997553 0.000151931 0)
(0.0996942 0.00014262 0)
(0.0996377 0.000132263 0)
(0.0995862 0.000121791 0)
(0.0995398 0.000111626 0)
(0.0994981 0.000101845 0)
(0.0994612 9.23319e-05 0)
(0.0994286 8.2895e-05 0)
(0.0994004 7.33418e-05 0)
(0.0993763 6.35144e-05 0)
(0.0993562 5.33008e-05 0)
(0.0993401 4.26324e-05 0)
(0.099328 3.14771e-05 0)
(0.0993197 1.98299e-05 0)
(0.0993153 7.70578e-06 0)
(0.0993146 -4.86608e-06 0)
(0.0993175 -1.78448e-05 0)
(0.0993241 -3.11794e-05 0)
(0.0993342 -4.48103e-05 0)
(0.0993477 -5.86652e-05 0)
(0.0993643 -7.26599e-05 0)
(0.0993841 -8.66976e-05 0)
(0.0994066 -0.000100663 0)
(0.0994318 -0.000114426 0)
(0.0994595 -0.000127832 0)
(0.0994892 -0.000140709 0)
(0.0995207 -0.000152856 0)
(0.0995537 -0.00016405 0)
(0.0995878 -0.000174034 0)
(0.0996226 -0.000182522 0)
(0.0996577 -0.000189194 0)
(0.0996924 -0.000193692 0)
(0.0997264 -0.000195614 0)
(0.0997591 -0.000194515 0)
(0.0997897 -0.000189895 0)
(0.0998177 -0.0001812 0)
(0.0998424 -0.000167807 0)
(0.0998629 -0.000149017 0)
(0.0998786 -0.000124046 0)
(0.0998884 -9.20093e-05 0)
(0.0998916 -5.19051e-05 0)
(0.0998872 -2.59646e-06 0)
(0.0998741 5.72047e-05 0)
(0.0998515 0.000128973 0)
(0.0998181 0.000214403 0)
(0.099773 0.000315445 0)
(0.0997151 0.000434351 0)
(0.0996434 0.000573726 0)
(0.0995569 0.000736591 0)
(0.0994548 0.000926455 0)
(0.0993366 0.00114739 0)
(0.0992018 0.00140412 0)
(0.0990509 0.00170211 0)
(0.0988846 0.00204765 0)
(0.0987048 0.00244792 0)
(0.0985146 0.00291102 0)
(0.0983191 0.00344593 0)
(0.0981254 0.00406228 0)
(0.0979438 0.00477003 0)
(0.0977883 0.00557866 0)
(0.0976772 0.00649599 0)
(0.0976338 0.00752621 0)
(0.0976859 0.00866695 0)
(0.0978648 0.00990539 0)
(0.098202 0.0112133 0)
(0.0987226 0.0125422 0)
(0.0994353 0.0138216 0)
(0.100319 0.0149636 0)
(0.100004 -3.1659e-05 0)
(0.100025 -5.43084e-05 0)
(0.100055 -6.25804e-05 0)
(0.100087 -5.47047e-05 0)
(0.100114 -3.0819e-05 0)
(0.10013 6.01467e-06 0)
(0.100131 5.01057e-05 0)
(0.100116 9.45724e-05 0)
(0.100084 0.000133223 0)
(0.100038 0.000161989 0)
(0.0999816 0.00017943 0)
(0.0999198 0.000186362 0)
(0.0998558 0.000184982 0)
(0.0997926 0.00017795 0)
(0.0997323 0.000167682 0)
(0.099676 0.000155988 0)
(0.0996243 0.000143993 0)
(0.0995774 0.000132243 0)
(0.0995353 0.000120876 0)
(0.0994977 0.000109798 0)
(0.0994645 9.88195e-05 0)
(0.0994355 8.77348e-05 0)
(0.0994106 7.63718e-05 0)
(0.0993896 6.46066e-05 0)
(0.0993724 5.23616e-05 0)
(0.099359 3.96e-05 0)
(0.0993493 2.63162e-05 0)
(0.0993431 1.25276e-05 0)
(0.0993405 -1.73094e-06 0)
(0.0993412 -1.64112e-05 0)
(0.0993453 -3.14525e-05 0)
(0.0993525 -4.67843e-05 0)
(0.0993627 -6.23193e-05 0)
(0.0993758 -7.7958e-05 0)
(0.0993916 -9.35857e-05 0)
(0.0994099 -0.000109068 0)
(0.0994304 -0.000124249 0)
(0.0994528 -0.000138952 0)
(0.099477 -0.000152975 0)
(0.0995026 -0.000166086 0)
(0.0995292 -0.000178027 0)
(0.0995565 -0.000188504 0)
(0.0995841 -0.00019719 0)
(0.0996115 -0.00020372 0)
(0.0996384 -0.000207684 0)
(0.099664 -0.000208631 0)
(0.0996881 -0.000206058 0)
(0.0997099 -0.000199405 0)
(0.0997289 -0.000188052 0)
(0.0997444 -0.000171307 0)
(0.0997558 -0.000148399 0)
(0.0997624 -0.00011847 0)
(0.0997635 -8.05553e-05 0)
(0.0997583 -3.3574e-05 0)
(0.099746 2.36853e-05 0)
(0.099726 9.2584e-05 0)
(0.0996974 0.000174666 0)
(0.0996596 0.000271682 0)
(0.0996119 0.000385613 0)
(0.0995536 0.000518712 0)
(0.0994843 0.000673538 0)
(0.0994037 0.000852996 0)
(0.0993117 0.00106038 0)
(0.0992086 0.00129942 0)
(0.0990951 0.00157429 0)
(0.0989726 0.00188967 0)
(0.0988432 0.00225073 0)
(0.09871 0.00266307 0)
(0.0985774 0.00313266 0)
(0.0984515 0.00366562 0)
(0.0983402 0.00426796 0)
(0.0982539 0.00494505 0)
(0.0982053 0.00570093 0)
(0.0982101 0.00653727 0)
(0.0982861 0.00745208 0)
(0.0984533 0.0084379 0)
(0.0987316 0.00947989 0)
(0.0991388 0.0105539 0)
(0.0996863 0.0116252 0)
(0.100374 0.0126495 0)
(0.101184 0.0135771 0)
(0.100004 -3.65013e-05 0)
(0.100025 -6.30369e-05 0)
(0.100055 -7.32579e-05 0)
(0.100087 -6.5209e-05 0)
(0.100116 -3.89277e-05 0)
(0.100136 2.29854e-06 0)
(0.100142 5.2198e-05 0)
(0.100131 0.000103072 0)
(0.100105 0.000147879 0)
(0.100065 0.000181862 0)
(0.100014 0.000203175 0)
(0.0999556 0.000212525 0)
(0.0998945 0.000212238 0)
(0.0998332 0.000205233 0)
(0.0997739 0.000194231 0)
(0.0997181 0.000181319 0)
(0.0996665 0.000167839 0)
(0.0996194 0.000154484 0)
(0.0995769 0.000141478 0)
(0.0995388 0.000128771 0)
(0.0995051 0.000116184 0)
(0.0994754 0.000103511 0)
(0.0994497 9.05691e-05 0)
(0.0994278 7.72254e-05 0)
(0.0994096 6.33949e-05 0)
(0.0993949 4.90362e-05 0)
(0.0993837 3.41435e-05 0)
(0.0993758 1.87363e-05 0)
(0.0993712 2.85546e-06 0)
(0.0993697 -1.34434e-05 0)
(0.0993711 -3.00887e-05 0)
(0.0993754 -4.69953e-05 0)
(0.0993823 -6.40631e-05 0)
(0.0993918 -8.11755e-05 0)
(0.0994035 -9.82001e-05 0)
(0.0994173 -0.000114979 0)
(0.099433 -0.000131335 0)
(0.0994502 -0.000147063 0)
(0.0994687 -0.000161934 0)
(0.0994881 -0.000175685 0)
(0.0995082 -0.000188022 0)
(0.0995286 -0.000198618 0)
(0.0995488 -0.000207103 0)
(0.0995685 -0.000213071 0)
(0.0995873 -0.000216069 0)
(0.0996046 -0.000215596 0)
(0.0996201 -0.000211098 0)
(0.0996331 -0.000201966 0)
(0.0996432 -0.000187523 0)
(0.0996498 -0.000167023 0)
(0.0996523 -0.000139639 0)
(0.0996503 -0.000104459 0)
(0.0996431 -6.04655e-05 0)
(0.0996301 -6.53291e-06 0)
(0.0996109 5.85827e-05 0)
(0.0995849 0.000136271 0)
(0.0995517 0.000228085 0)
(0.0995108 0.000335752 0)
(0.0994619 0.000461198 0)
(0.099405 0.000606567 0)
(0.09934 0.000774244 0)
(0.0992672 0.000966867 0)
(0.0991873 0.00118734 0)
(0.099101 0.00143886 0)
(0.09901 0.00172486 0)
(0.0989164 0.00204904 0)
(0.098823 0.00241524 0)
(0.0987336 0.00282742 0)
(0.0986531 0.00328942 0)
(0.0985877 0.00380481 0)
(0.098545 0.00437651 0)
(0.098534 0.00500641 0)
(0.0985654 0.00569478 0)
(0.0986509 0.00643962 0)
(0.0988034 0.00723586 0)
(0.0990358 0.00807455 0)
(0.0993598 0.00894206 0)
(0.0997845 0.00981963 0)
(0.100314 0.0106835 0)
(0.100945 0.0115063 0)
(0.101664 0.0122597 0)
(0.100004 -4.16181e-05 0)
(0.100024 -7.2349e-05 0)
(0.100055 -8.48419e-05 0)
(0.100088 -7.69552e-05 0)
(0.100118 -4.85978e-05 0)
(0.100141 -3.21498e-06 0)
(0.100151 5.24121e-05 0)
(0.100147 0.000109816 0)
(0.100126 0.000161106 0)
(0.100092 0.000200795 0)
(0.100046 0.000226555 0)
(0.0999921 0.0002389 0)
(0.0999343 0.000240216 0)
(0.0998753 0.000233642 0)
(0.0998176 0.000222187 0)
(0.0997625 0.000208224 0)
(0.0997113 0.000193333 0)
(0.0996642 0.000178381 0)
(0.0996215 0.000163704 0)
(0.0995831 0.000149315 0)
(0.0995488 0.000135065 0)
(0.0995186 0.000120756 0)
(0.0994922 0.000106203 0)
(0.0994694 9.12673e-05 0)
(0.0994501 7.5857e-05 0)
(0.0994342 5.99281e-05 0)
(0.0994215 4.34742e-05 0)
(0.0994118 2.65181e-05 0)
(0.0994051 9.10551e-06 0)
(0.0994013 -8.69818e-06 0)
(0.0994 -2.68099e-05 0)
(0.0994013 -4.51331e-05 0)
(0.0994048 -6.35501e-05 0)
(0.0994105 -8.19263e-05 0)
(0.099418 -0.000100111 0)
(0.0994273 -0.000117925 0)
(0.0994379 -0.000135164 0)
(0.0994497 -0.0001516 0)
(0.0994624 -0.000166973 0)
(0.0994756 -0.000180993 0)
(0.0994891 -0.000193333 0)
(0.0995024 -0.00020363 0)
(0.0995153 -0.00021148 0)
(0.0995273 -0.000216438 0)
(0.0995381 -0.000218012 0)
(0.0995472 -0.000215661 0)
(0.0995542 -0.000208791 0)
(0.0995586 -0.00019675 0)
(0.0995601 -0.000178822 0)
(0.0995582 -0.000154223 0)
(0.0995524 -0.000122092 0)
(0.0995424 -8.14864e-05 0)
(0.0995277 -3.13699e-05 0)
(0.0995079 2.93874e-05 0)
(0.0994828 0.000102024 0)
(0.099452 0.000187903 0)
(0.0994154 0.000288521 0)
(0.0993729 0.000405509 0)
(0.0993245 0.000540651 0)
(0.0992706 0.000695887 0)
(0.0992115 0.000873314 0)
(0.099148 0.00107519 0)
(0.0990812 0.00130391 0)
(0.0990125 0.001562 0)
(0.098944 0.00185208 0)
(0.098878 0.00217676 0)
(0.0988178 0.00253863 0)
(0.0987674 0.00294006 0)
(0.0987315 0.00338309 0)
(0.0987156 0.00386919 0)
(0.0987264 0.00439902 0)
(0.0987711 0.00497213 0)
(0.0988578 0.00558655 0)
(0.0989947 0.00623851 0)
(0.0991904 0.00692196 0)
(0.0994526 0.00762838 0)
(0.0997875 0.00834655 0)
(0.100199 0.00906264 0)
(0.100688 0.00976078 0)
(0.10125 0.010424 0)
(0.101876 0.0110361 0)
(0.100004 -4.70113e-05 0)
(0.100024 -8.225e-05 0)
(0.100054 -9.73517e-05 0)
(0.100088 -8.99905e-05 0)
(0.10012 -5.99198e-05 0)
(0.100145 -1.06745e-05 0)
(0.10016 5.05365e-05 0)
(0.10016 0.000114535 0)
(0.100145 0.000172596 0)
(0.100117 0.000218462 0)
(0.100076 0.00024925 0)
(0.100027 0.000265199 0)
(0.0999733 0.000268677 0)
(0.099917 0.000262992 0)
(0.0998611 0.000251422 0)
(0.0998073 0.000236627 0)
(0.0997567 0.000220444 0)
(0.0997099 0.000203938 0)
(0.0996672 0.000187587 0)
(0.0996285 0.000171489 0)
(0.0995939 0.000155542 0)
(0.0995632 0.000139569 0)
(0.099536 0.000123391 0)
(0.0995124 0.000106868 0)
(0.099492 8.99049e-05 0)
(0.0994748 7.24557e-05 0)
(0.0994605 5.45136e-05 0)
(0.099449 3.61052e-05 0)
(0.0994401 1.72827e-05 0)
(0.0994338 -1.88007e-06 0)
(0.0994297 -2.12904e-05 0)
(0.0994278 -4.08305e-05 0)
(0.0994278 -6.03732e-05 0)
(0.0994295 -7.97665e-05 0)
(0.0994328 -9.88294e-05 0)
(0.0994373 -0.000117368 0)
(0.0994428 -0.000135156 0)
(0.0994491 -0.000151939 0)
(0.0994559 -0.00016743 0)
(0.0994628 -0.000181309 0)
(0.0994696 -0.000193221 0)
(0.0994759 -0.000202773 0)
(0.0994814 -0.00020953 0)
(0.0994858 -0.000213015 0)
(0.0994887 -0.000212705 0)
(0.0994897 -0.000208029 0)
(0.0994886 -0.000198362 0)
(0.0994848 -0.000183027 0)
(0.0994782 -0.000161285 0)
(0.0994683 -0.000132334 0)
(0.0994549 -9.53038e-05 0)
(0.0994377 -4.92503e-05 0)
(0.0994164 6.84519e-06 0)
(0.0993909 7.4078e-05 0)
(0.099361 0.000153639 0)
(0.0993267 0.00024681 0)
(0.0992881 0.000354969 0)
(0.0992454 0.000479588 0)
(0.0991989 0.000622233 0)
(0.0991492 0.000784562 0)
(0.0990972 0.00096831 0)
(0.0990439 0.00117527 0)
(0.0989906 0.00140728 0)
(0.0989391 0.00166617 0)
(0.0988916 0.00195369 0)
(0.0988508 0.00227149 0)
(0.0988197 0.00262099 0)
(0.098802 0.00300327 0)
(0.0988019 0.00341894 0)
(0.0988241 0.00386799 0)
(0.0988739 0.00434959 0)
(0.0989565 0.00486194 0)
(0.0990778 0.00540204 0)
(0.0992433 0.00596554 0)
(0.0994579 0.00654665 0)
(0.0997261 0.00713807 0)
(0.100051 0.00773112 0)
(0.100433 0.00831591 0)
(0.100872 0.00888192 0)
(0.101363 0.00941859 0)
(0.101901 0.00991641 0)
(0.100004 -5.26775e-05 0)
(0.100024 -9.27304e-05 0)
(0.100053 -0.000110777 0)
(0.100087 -0.000104312 0)
(0.10012 -7.29106e-05 0)
(0.100148 -2.01329e-05 0)
(0.100166 4.6467e-05 0)
(0.100171 0.000117068 0)
(0.100162 0.000182131 0)
(0.100139 0.000234605 0)
(0.100104 0.000270983 0)
(0.10006 0.000291146 0)
(0.100009 0.000297366 0)
(0.0999563 0.000293067 0)
(0.0999027 0.000281767 0)
(0.0998504 0.000266409 0)
(0.0998007 0.000249102 0)
(0.0997545 0.000231134 0)
(0.0997119 0.000213146 0)
(0.0996733 0.000195348 0)
(0.0996384 0.000177702 0)
(0.0996071 0.000160067 0)
(0.0995792 0.000142279 0)
(0.0995547 0.000124201 0)
(0.0995331 0.000105741 0)
(0.0995144 8.68507e-05 0)
(0.0994984 6.75258e-05 0)
(0.099485 4.77963e-05 0)
(0.0994738 2.77208e-05 0)
(0.0994648 7.38307e-06 0)
(0.0994577 -1.31125e-05 0)
(0.0994525 -3.36325e-05 0)
(0.0994487 -5.40342e-05 0)
(0.0994464 -7.41474e-05 0)
(0.0994451 -9.37701e-05 0)
(0.0994448 -0.000112686 0)
(0.099445 -0.00013065 0)
(0.0994457 -0.000147381 0)
(0.0994464 -0.000162569 0)
(0.0994469 -0.000175869 0)
(0.099447 -0.0001869 0)
(0.0994463 -0.000195243 0)
(0.0994445 -0.000200442 0)
(0.0994414 -0.000201994 0)
(0.0994367 -0.000199357 0)
(0.0994299 -0.00019194 0)
(0.099421 -0.000179104 0)
(0.0994096 -0.000160161 0)
(0.0993954 -0.00013437 0)
(0.0993783 -0.000100933 0)
(0.099358 -5.89969e-05 0)
(0.0993345 -7.65022e-06 0)
(0.0993076 5.4071e-05 0)
(0.0992774 0.000127199 0)
(0.0992439 0.000212829 0)
(0.0992073 0.000312113 0)
(0.0991679 0.00042626 0)
(0.0991262 0.00055653 0)
(0.0990827 0.000704221 0)
(0.0990382 0.000870658 0)
(0.0989938 0.00105717 0)
(0.0989507 0.00126508 0)
(0.0989105 0.00149563 0)
(0.098875 0.00174999 0)
(0.0988463 0.00202917 0)
(0.0988269 0.00233395 0)
(0.0988198 0.00266482 0)
(0.0988279 0.00302188 0)
(0.0988548 0.00340477 0)
(0.0989042 0.00381253 0)
(0.0989799 0.00424349 0)
(0.0990857 0.00469526 0)
(0.0992254 0.00516455 0)
(0.0994023 0.0056472 0)
(0.0996193 0.00613818 0)
(0.0998785 0.00663164 0)
(0.100181 0.00712107 0)
(0.100526 0.00759954 0)
(0.100913 0.00806003 0)
(0.101337 0.00849589 0)
(0.101795 0.00890141 0)
(0.100003 -5.86066e-05 0)
(0.100023 -0.000103766 0)
(0.100052 -0.000125078 0)
(0.100086 -0.000119864 0)
(0.10012 -8.7509e-05 0)
(0.100149 -3.15404e-05 0)
(0.10017 4.02211e-05 0)
(0.100179 0.000117377 0)
(0.100175 0.000189612 0)
(0.100157 0.000249059 0)
(0.100127 0.00029154 0)
(0.100087 0.000316497 0)
(0.100041 0.000326036 0)
(0.0999914 0.000323639 0)
(0.0999403 0.000313029 0)
(0.0998899 0.000297426 0)
(0.0998415 0.000279217 0)
(0.099796 0.00025993 0)
(0.0997539 0.000240396 0)
(0.0997153 0.000220953 0)
(0.0996801 0.000201652 0)
(0.0996483 0.000182397 0)
(0.0996197 0.000163052 0)
(0.0995941 0.000143491 0)
(0.0995713 0.000123626 0)
(0.099551 0.000103413 0)
(0.0995332 8.28487e-05 0)
(0.0995175 6.19687e-05 0)
(0.0995038 4.08388e-05 0)
(0.0994919 1.95532e-05 0)
(0.0994817 -1.76902e-06 0)
(0.0994728 -2.299e-05 0)
(0.0994651 -4.39406e-05 0)
(0.0994584 -6.44327e-05 0)
(0.0994525 -8.42556e-05 0)
(0.099447 -0.000103166 0)
(0.0994419 -0.000120895 0)
(0.0994367 -0.000137143 0)
(0.0994313 -0.00015158 0)
(0.0994254 -0.000163842 0)
(0.0994188 -0.000173527 0)
(0.0994112 -0.000180199 0)
(0.0994023 -0.000183385 0)
(0.0993919 -0.000182571 0)
(0.0993797 -0.000177201 0)
(0.0993656 -0.000166683 0)
(0.0993493 -0.000150378 0)
(0.0993307 -0.000127609 0)
(0.0993097 -9.76506e-05 0)
(0.099286 -5.97347e-05 0)
(0.0992597 -1.30525e-05 0)
(0.0992308 4.32396e-05 0)
(0.0991994 0.000110032 0)
(0.0991655 0.000188253 0)
(0.0991295 0.000278863 0)
(0.0990917 0.000382848 0)
(0.0990525 0.000501214 0)
(0.0990126 0.000634971 0)
(0.0989728 0.000785122 0)
(0.0989339 0.000952642 0)
(0.0988971 0.00113846 0)
(0.0988638 0.00134342 0)
(0.0988354 0.00156825 0)
(0.0988138 0.00181354 0)
(0.0988008 0.00207966 0)
(0.0987988 0.00236672 0)
(0.0988101 0.00267456 0)
(0.0988372 0.0030026 0)
(0.0988829 0.00334988 0)
(0.0989497 0.00371492 0)
(0.0990405 0.00409574 0)
(0.0991577 0.00448981 0)
(0.0993036 0.00489402 0)
(0.0994802 0.00530474 0)
(0.0996887 0.00571783 0)
(0.0999301 0.0061288 0)
(0.100204 0.00653285 0)
(0.10051 0.00692515 0)
(0.100847 0.00730099 0)
(0.101211 0.0076561 0)
(0.101599 0.00798699 0)